
     Program PWSCF v.7.3.1 starts on 14Dec2024 at 11:23:50 

     This program is part of the open-source Quantum ESPRESSO suite
     for quantum simulation of materials; please cite
         "P. Giannozzi et al., J. Phys.:Condens. Matter 21 395502 (2009);
         "P. Giannozzi et al., J. Phys.:Condens. Matter 29 465901 (2017);
         "P. Giannozzi et al., J. Chem. Phys. 152 154105 (2020);
          URL http://www.quantum-espresso.org", 
     in publications or presentations arising from this work. More details at
     http://www.quantum-espresso.org/quote

     Parallel version (MPI), running on     1 processors

     MPI processes distributed on     1 nodes
     23491 MiB available memory on the printing compute node when the environment starts

     Waiting for input...
     Reading input from standard input

     Current dimensions of program PWSCF are:
     Max number of different atomic species (ntypx) = 10
     Max number of k-points (npk) =  40000
     Max angular momentum in pseudopotentials (lmaxx) =  4
     file O.pbesol-n-kjpaw_psl.0.1.UPF: wavefunction(s)  2P renormalized

     Atomic positions and unit cell read from directory:
     ./out/aiida.save/

     Message from routine setup:
     using ibrav=0 with symmetry is DISCOURAGED, use correct ibrav instead

     Subspace diagonalization in iterative solution of the eigenvalue problem:
     a serial algorithm will be used


     G-vector sticks info
     --------------------
     sticks:   dense  smooth     PW     G-vecs:    dense   smooth      PW
     Sum        6233    3105    927               185117    65363   10603

     Using Slab Decomposition



     bravais-lattice index     =            0
     lattice parameter (alat)  =       7.4873  a.u.
     unit-cell volume          =    1370.1431 (a.u.)^3
     number of atoms/cell      =            4
     number of atomic types    =            2
     number of electrons       =        32.00
     number of Kohn-Sham states=           20
     kinetic-energy cutoff     =      50.0000  Ry
     charge density cutoff     =     400.0000  Ry
     Exchange-correlation= SLA  PW   PSX  PSC
                           (   1   4  10   8   0   0   0)

     celldm(1)=   7.487284  celldm(2)=   0.000000  celldm(3)=   0.000000
     celldm(4)=   0.000000  celldm(5)=   0.000000  celldm(6)=   0.000000

     crystal axes: (cart. coord. in units of alat)
               a(1) = (   1.000000   0.000000   0.000000 )  
               a(2) = (   0.000000   3.496883   0.000000 )  
               a(3) = (   0.000000   0.000000   0.933495 )  

     reciprocal axes: (cart. coord. in units 2 pi/alat)
               b(1) = (  1.000000  0.000000  0.000000 )  
               b(2) = (  0.000000  0.285969  0.000000 )  
               b(3) = (  0.000000  0.000000  1.071243 )  


     PseudoPot. # 1 for Mo read from file:
     ./Mo_ONCV_PBEsol-1.0.upf
     MD5 check sum: 5193ba6a20874d27c2ef80314d1b3445
     Pseudo is Norm-conserving, Zval = 14.0
     Generated using ONCVPSP code by D. R. Hamann
     Using radial grid of 1508 points,  6 beta functions with: 
                l(1) =   0
                l(2) =   0
                l(3) =   1
                l(4) =   1
                l(5) =   2
                l(6) =   2

     PseudoPot. # 2 for O  read from file:
     ./O.pbesol-n-kjpaw_psl.0.1.UPF
     MD5 check sum: f1fabb93b5f951fba6cb430882e2825c
     Pseudo is Projector augmented-wave + core cor, Zval =  6.0
     Generated using &quot;atomic&quot; code by A. Dal Corso  v.6.3
     Shape of augmentation charge: BESSEL
     Using radial grid of 1095 points,  4 beta functions with: 
                l(1) =   0
                l(2) =   0
                l(3) =   1
                l(4) =   1
     Q(r) pseudized with 0 coefficients 


     atomic species   valence    mass     pseudopotential
     Mo               14.00    95.96000     Mo( 1.00)
     O                 6.00    15.99940     O ( 1.00)

      2 Sym. Ops. (no inversion) found ( 1 have fractional translation)


                                    s                        frac. trans.

      isym =  1     identity                                     

 cryst.   s( 1) = (     1          0          0      )
                  (     0          1          0      )
                  (     0          0          1      )

 cart.    s( 1) = (  1.0000000  0.0000000  0.0000000 )
                  (  0.0000000  1.0000000  0.0000000 )
                  (  0.0000000  0.0000000  1.0000000 )


      isym =  2     inv. 180 deg rotation - cart. axis [0,0,1]   

 cryst.   s( 2) = (     1          0          0      )    f =(  0.0000000 )
                  (     0          1          0      )       (  0.0000000 )
                  (     0          0         -1      )       (  0.5000000 )

 cart.    s( 2) = (  1.0000000  0.0000000  0.0000000 )    f =(  0.0000000 )
                  (  0.0000000  1.0000000  0.0000000 )       (  0.0000000 )
                  (  0.0000000  0.0000000 -1.0000000 )       (  0.4667474 )


   Cartesian axes

     site n.     atom                  positions (alat units)
         1        Mo     tau(   1) = (   0.5750000   1.3917594   0.7001211  )
         2        O      tau(   2) = (   0.5260000   1.4896721   0.2333737  )
         3        O      tau(   3) = (   0.0660000   1.4477095   0.7001211  )
         4        O      tau(   4) = (   0.5100000   0.9651397   0.7001211  )

   Crystallographic axes

     site n.     atom                  positions (cryst. coord.)
         1        Mo     tau(   1) = (  0.5750000  0.3980000  0.7500000  )
         2        O      tau(   2) = (  0.5260000  0.4260000  0.2500000  )
         3        O      tau(   3) = (  0.0660000  0.4140000  0.7500000  )
         4        O      tau(   4) = (  0.5100000  0.2760000  0.7500000  )

     number of k points=   401  Marzari-Vanderbilt smearing, width (Ry)=  0.0200
                       cart. coord. in units 2pi/alat
        k(    1) = (   0.0000000   0.0000000   0.0000000), wk =   0.0049875
        k(    2) = (   0.0000000   0.0071492   0.0000000), wk =   0.0049875
        k(    3) = (   0.0000000   0.0142984   0.0000000), wk =   0.0049875
        k(    4) = (   0.0000000   0.0214477   0.0000000), wk =   0.0049875
        k(    5) = (   0.0000000   0.0285969   0.0000000), wk =   0.0049875
        k(    6) = (   0.0000000   0.0357461   0.0000000), wk =   0.0049875
        k(    7) = (   0.0000000   0.0428953   0.0000000), wk =   0.0049875
        k(    8) = (   0.0000000   0.0500446   0.0000000), wk =   0.0049875
        k(    9) = (   0.0000000   0.0571938   0.0000000), wk =   0.0049875
        k(   10) = (   0.0000000   0.0643430   0.0000000), wk =   0.0049875
        k(   11) = (   0.0000000   0.0714922   0.0000000), wk =   0.0049875
        k(   12) = (   0.0000000   0.0786415   0.0000000), wk =   0.0049875
        k(   13) = (   0.0000000   0.0857907   0.0000000), wk =   0.0049875
        k(   14) = (   0.0000000   0.0929399   0.0000000), wk =   0.0049875
        k(   15) = (   0.0000000   0.1000891   0.0000000), wk =   0.0049875
        k(   16) = (   0.0000000   0.1072384   0.0000000), wk =   0.0049875
        k(   17) = (   0.0000000   0.1143876   0.0000000), wk =   0.0049875
        k(   18) = (   0.0000000   0.1215368   0.0000000), wk =   0.0049875
        k(   19) = (   0.0000000   0.1286860   0.0000000), wk =   0.0049875
        k(   20) = (   0.0000000   0.1358353   0.0000000), wk =   0.0049875
        k(   21) = (   0.0000000   0.1429845   0.0000000), wk =   0.0049875
        k(   22) = (   0.0000000   0.1429845   0.0267811), wk =   0.0049875
        k(   23) = (   0.0000000   0.1429845   0.0535622), wk =   0.0049875
        k(   24) = (   0.0000000   0.1429845   0.0803432), wk =   0.0049875
        k(   25) = (   0.0000000   0.1429845   0.1071243), wk =   0.0049875
        k(   26) = (   0.0000000   0.1429845   0.1339054), wk =   0.0049875
        k(   27) = (   0.0000000   0.1429845   0.1606865), wk =   0.0049875
        k(   28) = (   0.0000000   0.1429845   0.1874676), wk =   0.0049875
        k(   29) = (   0.0000000   0.1429845   0.2142486), wk =   0.0049875
        k(   30) = (   0.0000000   0.1429845   0.2410297), wk =   0.0049875
        k(   31) = (   0.0000000   0.1429845   0.2678108), wk =   0.0049875
        k(   32) = (   0.0000000   0.1429845   0.2945919), wk =   0.0049875
        k(   33) = (   0.0000000   0.1429845   0.3213730), wk =   0.0049875
        k(   34) = (   0.0000000   0.1429845   0.3481540), wk =   0.0049875
        k(   35) = (   0.0000000   0.1429845   0.3749351), wk =   0.0049875
        k(   36) = (   0.0000000   0.1429845   0.4017162), wk =   0.0049875
        k(   37) = (   0.0000000   0.1429845   0.4284973), wk =   0.0049875
        k(   38) = (   0.0000000   0.1429845   0.4552783), wk =   0.0049875
        k(   39) = (   0.0000000   0.1429845   0.4820594), wk =   0.0049875
        k(   40) = (   0.0000000   0.1429845   0.5088405), wk =   0.0049875
        k(   41) = (   0.0000000   0.1429845   0.5356216), wk =   0.0049875
        k(   42) = (   0.0000000   0.1358353   0.5356216), wk =   0.0049875
        k(   43) = (   0.0000000   0.1286860   0.5356216), wk =   0.0049875
        k(   44) = (   0.0000000   0.1215368   0.5356216), wk =   0.0049875
        k(   45) = (   0.0000000   0.1143876   0.5356216), wk =   0.0049875
        k(   46) = (   0.0000000   0.1072384   0.5356216), wk =   0.0049875
        k(   47) = (   0.0000000   0.1000891   0.5356216), wk =   0.0049875
        k(   48) = (   0.0000000   0.0929399   0.5356216), wk =   0.0049875
        k(   49) = (   0.0000000   0.0857907   0.5356216), wk =   0.0049875
        k(   50) = (   0.0000000   0.0786415   0.5356216), wk =   0.0049875
        k(   51) = (   0.0000000   0.0714922   0.5356216), wk =   0.0049875
        k(   52) = (   0.0000000   0.0643430   0.5356216), wk =   0.0049875
        k(   53) = (   0.0000000   0.0571938   0.5356216), wk =   0.0049875
        k(   54) = (   0.0000000   0.0500446   0.5356216), wk =   0.0049875
        k(   55) = (   0.0000000   0.0428953   0.5356216), wk =   0.0049875
        k(   56) = (   0.0000000   0.0357461   0.5356216), wk =   0.0049875
        k(   57) = (   0.0000000   0.0285969   0.5356216), wk =   0.0049875
        k(   58) = (   0.0000000   0.0214477   0.5356216), wk =   0.0049875
        k(   59) = (   0.0000000   0.0142984   0.5356216), wk =   0.0049875
        k(   60) = (   0.0000000   0.0071492   0.5356216), wk =   0.0049875
        k(   61) = (   0.0000000   0.0000000   0.5356216), wk =   0.0049875
        k(   62) = (   0.0000000   0.0000000   0.5088405), wk =   0.0049875
        k(   63) = (   0.0000000   0.0000000   0.4820594), wk =   0.0049875
        k(   64) = (   0.0000000   0.0000000   0.4552783), wk =   0.0049875
        k(   65) = (   0.0000000   0.0000000   0.4284973), wk =   0.0049875
        k(   66) = (   0.0000000   0.0000000   0.4017162), wk =   0.0049875
        k(   67) = (   0.0000000   0.0000000   0.3749351), wk =   0.0049875
        k(   68) = (   0.0000000   0.0000000   0.3481540), wk =   0.0049875
        k(   69) = (   0.0000000   0.0000000   0.3213730), wk =   0.0049875
        k(   70) = (   0.0000000   0.0000000   0.2945919), wk =   0.0049875
        k(   71) = (   0.0000000   0.0000000   0.2678108), wk =   0.0049875
        k(   72) = (   0.0000000   0.0000000   0.2410297), wk =   0.0049875
        k(   73) = (   0.0000000   0.0000000   0.2142486), wk =   0.0049875
        k(   74) = (   0.0000000   0.0000000   0.1874676), wk =   0.0049875
        k(   75) = (   0.0000000   0.0000000   0.1606865), wk =   0.0049875
        k(   76) = (   0.0000000   0.0000000   0.1339054), wk =   0.0049875
        k(   77) = (   0.0000000   0.0000000   0.1071243), wk =   0.0049875
        k(   78) = (   0.0000000   0.0000000   0.0803432), wk =   0.0049875
        k(   79) = (   0.0000000   0.0000000   0.0535622), wk =   0.0049875
        k(   80) = (   0.0000000   0.0000000   0.0267811), wk =   0.0049875
        k(   81) = (   0.0000000   0.0000000   0.0000000), wk =   0.0049875
        k(   82) = (  -0.0250000   0.0000000   0.0267811), wk =   0.0049875
        k(   83) = (  -0.0500000   0.0000000   0.0535622), wk =   0.0049875
        k(   84) = (  -0.0750000   0.0000000   0.0803432), wk =   0.0049875
        k(   85) = (  -0.1000000   0.0000000   0.1071243), wk =   0.0049875
        k(   86) = (  -0.1250000   0.0000000   0.1339054), wk =   0.0049875
        k(   87) = (  -0.1500000   0.0000000   0.1606865), wk =   0.0049875
        k(   88) = (  -0.1750000   0.0000000   0.1874676), wk =   0.0049875
        k(   89) = (  -0.2000000   0.0000000   0.2142486), wk =   0.0049875
        k(   90) = (  -0.2250000   0.0000000   0.2410297), wk =   0.0049875
        k(   91) = (  -0.2500000   0.0000000   0.2678108), wk =   0.0049875
        k(   92) = (  -0.2750000   0.0000000   0.2945919), wk =   0.0049875
        k(   93) = (  -0.3000000   0.0000000   0.3213730), wk =   0.0049875
        k(   94) = (  -0.3250000   0.0000000   0.3481540), wk =   0.0049875
        k(   95) = (  -0.3500000   0.0000000   0.3749351), wk =   0.0049875
        k(   96) = (  -0.3750000   0.0000000   0.4017162), wk =   0.0049875
        k(   97) = (  -0.4000000   0.0000000   0.4284973), wk =   0.0049875
        k(   98) = (  -0.4250000   0.0000000   0.4552783), wk =   0.0049875
        k(   99) = (  -0.4500000   0.0000000   0.4820594), wk =   0.0049875
        k(  100) = (  -0.4750000   0.0000000   0.5088405), wk =   0.0049875
        k(  101) = (  -0.5000000   0.0000000   0.5356216), wk =   0.0049875
        k(  102) = (  -0.5000000   0.0071492   0.5356216), wk =   0.0049875
        k(  103) = (  -0.5000000   0.0142984   0.5356216), wk =   0.0049875
        k(  104) = (  -0.5000000   0.0214477   0.5356216), wk =   0.0049875
        k(  105) = (  -0.5000000   0.0285969   0.5356216), wk =   0.0049875
        k(  106) = (  -0.5000000   0.0357461   0.5356216), wk =   0.0049875
        k(  107) = (  -0.5000000   0.0428953   0.5356216), wk =   0.0049875
        k(  108) = (  -0.5000000   0.0500446   0.5356216), wk =   0.0049875
        k(  109) = (  -0.5000000   0.0571938   0.5356216), wk =   0.0049875
        k(  110) = (  -0.5000000   0.0643430   0.5356216), wk =   0.0049875
        k(  111) = (  -0.5000000   0.0714922   0.5356216), wk =   0.0049875
        k(  112) = (  -0.5000000   0.0786415   0.5356216), wk =   0.0049875
        k(  113) = (  -0.5000000   0.0857907   0.5356216), wk =   0.0049875
        k(  114) = (  -0.5000000   0.0929399   0.5356216), wk =   0.0049875
        k(  115) = (  -0.5000000   0.1000891   0.5356216), wk =   0.0049875
        k(  116) = (  -0.5000000   0.1072384   0.5356216), wk =   0.0049875
        k(  117) = (  -0.5000000   0.1143876   0.5356216), wk =   0.0049875
        k(  118) = (  -0.5000000   0.1215368   0.5356216), wk =   0.0049875
        k(  119) = (  -0.5000000   0.1286860   0.5356216), wk =   0.0049875
        k(  120) = (  -0.5000000   0.1358353   0.5356216), wk =   0.0049875
        k(  121) = (  -0.5000000   0.1429845   0.5356216), wk =   0.0049875
        k(  122) = (  -0.4750000   0.1429845   0.5088405), wk =   0.0049875
        k(  123) = (  -0.4500000   0.1429845   0.4820594), wk =   0.0049875
        k(  124) = (  -0.4250000   0.1429845   0.4552783), wk =   0.0049875
        k(  125) = (  -0.4000000   0.1429845   0.4284973), wk =   0.0049875
        k(  126) = (  -0.3750000   0.1429845   0.4017162), wk =   0.0049875
        k(  127) = (  -0.3500000   0.1429845   0.3749351), wk =   0.0049875
        k(  128) = (  -0.3250000   0.1429845   0.3481540), wk =   0.0049875
        k(  129) = (  -0.3000000   0.1429845   0.3213730), wk =   0.0049875
        k(  130) = (  -0.2750000   0.1429845   0.2945919), wk =   0.0049875
        k(  131) = (  -0.2500000   0.1429845   0.2678108), wk =   0.0049875
        k(  132) = (  -0.2250000   0.1429845   0.2410297), wk =   0.0049875
        k(  133) = (  -0.2000000   0.1429845   0.2142486), wk =   0.0049875
        k(  134) = (  -0.1750000   0.1429845   0.1874676), wk =   0.0049875
        k(  135) = (  -0.1500000   0.1429845   0.1606865), wk =   0.0049875
        k(  136) = (  -0.1250000   0.1429845   0.1339054), wk =   0.0049875
        k(  137) = (  -0.1000000   0.1429845   0.1071243), wk =   0.0049875
        k(  138) = (  -0.0750000   0.1429845   0.0803432), wk =   0.0049875
        k(  139) = (  -0.0500000   0.1429845   0.0535622), wk =   0.0049875
        k(  140) = (  -0.0250000   0.1429845   0.0267811), wk =   0.0049875
        k(  141) = (   0.0000000   0.1429845   0.0000000), wk =   0.0049875
        k(  142) = (  -0.0250000   0.1429845   0.0000000), wk =   0.0049875
        k(  143) = (  -0.0500000   0.1429845   0.0000000), wk =   0.0049875
        k(  144) = (  -0.0750000   0.1429845   0.0000000), wk =   0.0049875
        k(  145) = (  -0.1000000   0.1429845   0.0000000), wk =   0.0049875
        k(  146) = (  -0.1250000   0.1429845   0.0000000), wk =   0.0049875
        k(  147) = (  -0.1500000   0.1429845   0.0000000), wk =   0.0049875
        k(  148) = (  -0.1750000   0.1429845   0.0000000), wk =   0.0049875
        k(  149) = (  -0.2000000   0.1429845   0.0000000), wk =   0.0049875
        k(  150) = (  -0.2250000   0.1429845   0.0000000), wk =   0.0049875
        k(  151) = (  -0.2500000   0.1429845   0.0000000), wk =   0.0049875
        k(  152) = (  -0.2750000   0.1429845   0.0000000), wk =   0.0049875
        k(  153) = (  -0.3000000   0.1429845   0.0000000), wk =   0.0049875
        k(  154) = (  -0.3250000   0.1429845   0.0000000), wk =   0.0049875
        k(  155) = (  -0.3500000   0.1429845   0.0000000), wk =   0.0049875
        k(  156) = (  -0.3750000   0.1429845   0.0000000), wk =   0.0049875
        k(  157) = (  -0.4000000   0.1429845   0.0000000), wk =   0.0049875
        k(  158) = (  -0.4250000   0.1429845   0.0000000), wk =   0.0049875
        k(  159) = (  -0.4500000   0.1429845   0.0000000), wk =   0.0049875
        k(  160) = (  -0.4750000   0.1429845   0.0000000), wk =   0.0049875
        k(  161) = (  -0.5000000   0.1429845   0.0000000), wk =   0.0049875
        k(  162) = (  -0.5000000   0.1358353   0.0000000), wk =   0.0049875
        k(  163) = (  -0.5000000   0.1286860   0.0000000), wk =   0.0049875
        k(  164) = (  -0.5000000   0.1215368   0.0000000), wk =   0.0049875
        k(  165) = (  -0.5000000   0.1143876   0.0000000), wk =   0.0049875
        k(  166) = (  -0.5000000   0.1072384   0.0000000), wk =   0.0049875
        k(  167) = (  -0.5000000   0.1000891   0.0000000), wk =   0.0049875
        k(  168) = (  -0.5000000   0.0929399   0.0000000), wk =   0.0049875
        k(  169) = (  -0.5000000   0.0857907   0.0000000), wk =   0.0049875
        k(  170) = (  -0.5000000   0.0786415   0.0000000), wk =   0.0049875
        k(  171) = (  -0.5000000   0.0714922   0.0000000), wk =   0.0049875
        k(  172) = (  -0.5000000   0.0643430   0.0000000), wk =   0.0049875
        k(  173) = (  -0.5000000   0.0571938   0.0000000), wk =   0.0049875
        k(  174) = (  -0.5000000   0.0500446   0.0000000), wk =   0.0049875
        k(  175) = (  -0.5000000   0.0428953   0.0000000), wk =   0.0049875
        k(  176) = (  -0.5000000   0.0357461   0.0000000), wk =   0.0049875
        k(  177) = (  -0.5000000   0.0285969   0.0000000), wk =   0.0049875
        k(  178) = (  -0.5000000   0.0214477   0.0000000), wk =   0.0049875
        k(  179) = (  -0.5000000   0.0142984   0.0000000), wk =   0.0049875
        k(  180) = (  -0.5000000   0.0071492   0.0000000), wk =   0.0049875
        k(  181) = (  -0.5000000   0.0000000   0.0000000), wk =   0.0049875
        k(  182) = (  -0.4750000   0.0000000   0.0000000), wk =   0.0049875
        k(  183) = (  -0.4500000   0.0000000   0.0000000), wk =   0.0049875
        k(  184) = (  -0.4250000   0.0000000   0.0000000), wk =   0.0049875
        k(  185) = (  -0.4000000   0.0000000   0.0000000), wk =   0.0049875
        k(  186) = (  -0.3750000   0.0000000   0.0000000), wk =   0.0049875
        k(  187) = (  -0.3500000   0.0000000   0.0000000), wk =   0.0049875
        k(  188) = (  -0.3250000   0.0000000   0.0000000), wk =   0.0049875
        k(  189) = (  -0.3000000   0.0000000   0.0000000), wk =   0.0049875
        k(  190) = (  -0.2750000   0.0000000   0.0000000), wk =   0.0049875
        k(  191) = (  -0.2500000   0.0000000   0.0000000), wk =   0.0049875
        k(  192) = (  -0.2250000   0.0000000   0.0000000), wk =   0.0049875
        k(  193) = (  -0.2000000   0.0000000   0.0000000), wk =   0.0049875
        k(  194) = (  -0.1750000   0.0000000   0.0000000), wk =   0.0049875
        k(  195) = (  -0.1500000   0.0000000   0.0000000), wk =   0.0049875
        k(  196) = (  -0.1250000   0.0000000   0.0000000), wk =   0.0049875
        k(  197) = (  -0.1000000   0.0000000   0.0000000), wk =   0.0049875
        k(  198) = (  -0.0750000   0.0000000   0.0000000), wk =   0.0049875
        k(  199) = (  -0.0500000   0.0000000   0.0000000), wk =   0.0049875
        k(  200) = (  -0.0250000   0.0000000   0.0000000), wk =   0.0049875
        k(  201) = (   0.0000000   0.0000000   0.0000000), wk =   0.0049875
        k(  202) = (   0.0000000  -0.0071492   0.0000000), wk =   0.0049875
        k(  203) = (   0.0000000  -0.0142984   0.0000000), wk =   0.0049875
        k(  204) = (   0.0000000  -0.0214477   0.0000000), wk =   0.0049875
        k(  205) = (   0.0000000  -0.0285969   0.0000000), wk =   0.0049875
        k(  206) = (   0.0000000  -0.0357461   0.0000000), wk =   0.0049875
        k(  207) = (   0.0000000  -0.0428953   0.0000000), wk =   0.0049875
        k(  208) = (   0.0000000  -0.0500446   0.0000000), wk =   0.0049875
        k(  209) = (   0.0000000  -0.0571938   0.0000000), wk =   0.0049875
        k(  210) = (   0.0000000  -0.0643430   0.0000000), wk =   0.0049875
        k(  211) = (   0.0000000  -0.0714922   0.0000000), wk =   0.0049875
        k(  212) = (   0.0000000  -0.0786415   0.0000000), wk =   0.0049875
        k(  213) = (   0.0000000  -0.0857907   0.0000000), wk =   0.0049875
        k(  214) = (   0.0000000  -0.0929399   0.0000000), wk =   0.0049875
        k(  215) = (   0.0000000  -0.1000891   0.0000000), wk =   0.0049875
        k(  216) = (   0.0000000  -0.1072384   0.0000000), wk =   0.0049875
        k(  217) = (   0.0000000  -0.1143876   0.0000000), wk =   0.0049875
        k(  218) = (   0.0000000  -0.1215368   0.0000000), wk =   0.0049875
        k(  219) = (   0.0000000  -0.1286860   0.0000000), wk =   0.0049875
        k(  220) = (   0.0000000  -0.1358353   0.0000000), wk =   0.0049875
        k(  221) = (   0.0000000  -0.1429845   0.0000000), wk =   0.0049875
        k(  222) = (   0.0000000  -0.1429845  -0.0267811), wk =   0.0049875
        k(  223) = (   0.0000000  -0.1429845  -0.0535622), wk =   0.0049875
        k(  224) = (   0.0000000  -0.1429845  -0.0803432), wk =   0.0049875
        k(  225) = (   0.0000000  -0.1429845  -0.1071243), wk =   0.0049875
        k(  226) = (   0.0000000  -0.1429845  -0.1339054), wk =   0.0049875
        k(  227) = (   0.0000000  -0.1429845  -0.1606865), wk =   0.0049875
        k(  228) = (   0.0000000  -0.1429845  -0.1874676), wk =   0.0049875
        k(  229) = (   0.0000000  -0.1429845  -0.2142486), wk =   0.0049875
        k(  230) = (   0.0000000  -0.1429845  -0.2410297), wk =   0.0049875
        k(  231) = (   0.0000000  -0.1429845  -0.2678108), wk =   0.0049875
        k(  232) = (   0.0000000  -0.1429845  -0.2945919), wk =   0.0049875
        k(  233) = (   0.0000000  -0.1429845  -0.3213730), wk =   0.0049875
        k(  234) = (   0.0000000  -0.1429845  -0.3481540), wk =   0.0049875
        k(  235) = (   0.0000000  -0.1429845  -0.3749351), wk =   0.0049875
        k(  236) = (   0.0000000  -0.1429845  -0.4017162), wk =   0.0049875
        k(  237) = (   0.0000000  -0.1429845  -0.4284973), wk =   0.0049875
        k(  238) = (   0.0000000  -0.1429845  -0.4552783), wk =   0.0049875
        k(  239) = (   0.0000000  -0.1429845  -0.4820594), wk =   0.0049875
        k(  240) = (   0.0000000  -0.1429845  -0.5088405), wk =   0.0049875
        k(  241) = (   0.0000000  -0.1429845  -0.5356216), wk =   0.0049875
        k(  242) = (   0.0000000  -0.1358353  -0.5356216), wk =   0.0049875
        k(  243) = (   0.0000000  -0.1286860  -0.5356216), wk =   0.0049875
        k(  244) = (   0.0000000  -0.1215368  -0.5356216), wk =   0.0049875
        k(  245) = (   0.0000000  -0.1143876  -0.5356216), wk =   0.0049875
        k(  246) = (   0.0000000  -0.1072384  -0.5356216), wk =   0.0049875
        k(  247) = (   0.0000000  -0.1000891  -0.5356216), wk =   0.0049875
        k(  248) = (   0.0000000  -0.0929399  -0.5356216), wk =   0.0049875
        k(  249) = (   0.0000000  -0.0857907  -0.5356216), wk =   0.0049875
        k(  250) = (   0.0000000  -0.0786415  -0.5356216), wk =   0.0049875
        k(  251) = (   0.0000000  -0.0714922  -0.5356216), wk =   0.0049875
        k(  252) = (   0.0000000  -0.0643430  -0.5356216), wk =   0.0049875
        k(  253) = (   0.0000000  -0.0571938  -0.5356216), wk =   0.0049875
        k(  254) = (   0.0000000  -0.0500446  -0.5356216), wk =   0.0049875
        k(  255) = (   0.0000000  -0.0428953  -0.5356216), wk =   0.0049875
        k(  256) = (   0.0000000  -0.0357461  -0.5356216), wk =   0.0049875
        k(  257) = (   0.0000000  -0.0285969  -0.5356216), wk =   0.0049875
        k(  258) = (   0.0000000  -0.0214477  -0.5356216), wk =   0.0049875
        k(  259) = (   0.0000000  -0.0142984  -0.5356216), wk =   0.0049875
        k(  260) = (   0.0000000  -0.0071492  -0.5356216), wk =   0.0049875
        k(  261) = (   0.0000000   0.0000000  -0.5356216), wk =   0.0049875
        k(  262) = (   0.0000000   0.0000000  -0.5088405), wk =   0.0049875
        k(  263) = (   0.0000000   0.0000000  -0.4820594), wk =   0.0049875
        k(  264) = (   0.0000000   0.0000000  -0.4552783), wk =   0.0049875
        k(  265) = (   0.0000000   0.0000000  -0.4284973), wk =   0.0049875
        k(  266) = (   0.0000000   0.0000000  -0.4017162), wk =   0.0049875
        k(  267) = (   0.0000000   0.0000000  -0.3749351), wk =   0.0049875
        k(  268) = (   0.0000000   0.0000000  -0.3481540), wk =   0.0049875
        k(  269) = (   0.0000000   0.0000000  -0.3213730), wk =   0.0049875
        k(  270) = (   0.0000000   0.0000000  -0.2945919), wk =   0.0049875
        k(  271) = (   0.0000000   0.0000000  -0.2678108), wk =   0.0049875
        k(  272) = (   0.0000000   0.0000000  -0.2410297), wk =   0.0049875
        k(  273) = (   0.0000000   0.0000000  -0.2142486), wk =   0.0049875
        k(  274) = (   0.0000000   0.0000000  -0.1874676), wk =   0.0049875
        k(  275) = (   0.0000000   0.0000000  -0.1606865), wk =   0.0049875
        k(  276) = (   0.0000000   0.0000000  -0.1339054), wk =   0.0049875
        k(  277) = (   0.0000000   0.0000000  -0.1071243), wk =   0.0049875
        k(  278) = (   0.0000000   0.0000000  -0.0803432), wk =   0.0049875
        k(  279) = (   0.0000000   0.0000000  -0.0535622), wk =   0.0049875
        k(  280) = (   0.0000000   0.0000000  -0.0267811), wk =   0.0049875
        k(  281) = (   0.0000000   0.0000000   0.0000000), wk =   0.0049875
        k(  282) = (   0.0250000   0.0000000  -0.0267811), wk =   0.0049875
        k(  283) = (   0.0500000   0.0000000  -0.0535622), wk =   0.0049875
        k(  284) = (   0.0750000   0.0000000  -0.0803432), wk =   0.0049875
        k(  285) = (   0.1000000   0.0000000  -0.1071243), wk =   0.0049875
        k(  286) = (   0.1250000   0.0000000  -0.1339054), wk =   0.0049875
        k(  287) = (   0.1500000   0.0000000  -0.1606865), wk =   0.0049875
        k(  288) = (   0.1750000   0.0000000  -0.1874676), wk =   0.0049875
        k(  289) = (   0.2000000   0.0000000  -0.2142486), wk =   0.0049875
        k(  290) = (   0.2250000   0.0000000  -0.2410297), wk =   0.0049875
        k(  291) = (   0.2500000   0.0000000  -0.2678108), wk =   0.0049875
        k(  292) = (   0.2750000   0.0000000  -0.2945919), wk =   0.0049875
        k(  293) = (   0.3000000   0.0000000  -0.3213730), wk =   0.0049875
        k(  294) = (   0.3250000   0.0000000  -0.3481540), wk =   0.0049875
        k(  295) = (   0.3500000   0.0000000  -0.3749351), wk =   0.0049875
        k(  296) = (   0.3750000   0.0000000  -0.4017162), wk =   0.0049875
        k(  297) = (   0.4000000   0.0000000  -0.4284973), wk =   0.0049875
        k(  298) = (   0.4250000   0.0000000  -0.4552783), wk =   0.0049875
        k(  299) = (   0.4500000   0.0000000  -0.4820594), wk =   0.0049875
        k(  300) = (   0.4750000   0.0000000  -0.5088405), wk =   0.0049875
        k(  301) = (   0.5000000   0.0000000  -0.5356216), wk =   0.0049875
        k(  302) = (   0.5000000  -0.0071492  -0.5356216), wk =   0.0049875
        k(  303) = (   0.5000000  -0.0142984  -0.5356216), wk =   0.0049875
        k(  304) = (   0.5000000  -0.0214477  -0.5356216), wk =   0.0049875
        k(  305) = (   0.5000000  -0.0285969  -0.5356216), wk =   0.0049875
        k(  306) = (   0.5000000  -0.0357461  -0.5356216), wk =   0.0049875
        k(  307) = (   0.5000000  -0.0428953  -0.5356216), wk =   0.0049875
        k(  308) = (   0.5000000  -0.0500446  -0.5356216), wk =   0.0049875
        k(  309) = (   0.5000000  -0.0571938  -0.5356216), wk =   0.0049875
        k(  310) = (   0.5000000  -0.0643430  -0.5356216), wk =   0.0049875
        k(  311) = (   0.5000000  -0.0714922  -0.5356216), wk =   0.0049875
        k(  312) = (   0.5000000  -0.0786415  -0.5356216), wk =   0.0049875
        k(  313) = (   0.5000000  -0.0857907  -0.5356216), wk =   0.0049875
        k(  314) = (   0.5000000  -0.0929399  -0.5356216), wk =   0.0049875
        k(  315) = (   0.5000000  -0.1000891  -0.5356216), wk =   0.0049875
        k(  316) = (   0.5000000  -0.1072384  -0.5356216), wk =   0.0049875
        k(  317) = (   0.5000000  -0.1143876  -0.5356216), wk =   0.0049875
        k(  318) = (   0.5000000  -0.1215368  -0.5356216), wk =   0.0049875
        k(  319) = (   0.5000000  -0.1286860  -0.5356216), wk =   0.0049875
        k(  320) = (   0.5000000  -0.1358353  -0.5356216), wk =   0.0049875
        k(  321) = (   0.5000000  -0.1429845  -0.5356216), wk =   0.0049875
        k(  322) = (   0.4750000  -0.1429845  -0.5088405), wk =   0.0049875
        k(  323) = (   0.4500000  -0.1429845  -0.4820594), wk =   0.0049875
        k(  324) = (   0.4250000  -0.1429845  -0.4552783), wk =   0.0049875
        k(  325) = (   0.4000000  -0.1429845  -0.4284973), wk =   0.0049875
        k(  326) = (   0.3750000  -0.1429845  -0.4017162), wk =   0.0049875
        k(  327) = (   0.3500000  -0.1429845  -0.3749351), wk =   0.0049875
        k(  328) = (   0.3250000  -0.1429845  -0.3481540), wk =   0.0049875
        k(  329) = (   0.3000000  -0.1429845  -0.3213730), wk =   0.0049875
        k(  330) = (   0.2750000  -0.1429845  -0.2945919), wk =   0.0049875
        k(  331) = (   0.2500000  -0.1429845  -0.2678108), wk =   0.0049875
        k(  332) = (   0.2250000  -0.1429845  -0.2410297), wk =   0.0049875
        k(  333) = (   0.2000000  -0.1429845  -0.2142486), wk =   0.0049875
        k(  334) = (   0.1750000  -0.1429845  -0.1874676), wk =   0.0049875
        k(  335) = (   0.1500000  -0.1429845  -0.1606865), wk =   0.0049875
        k(  336) = (   0.1250000  -0.1429845  -0.1339054), wk =   0.0049875
        k(  337) = (   0.1000000  -0.1429845  -0.1071243), wk =   0.0049875
        k(  338) = (   0.0750000  -0.1429845  -0.0803432), wk =   0.0049875
        k(  339) = (   0.0500000  -0.1429845  -0.0535622), wk =   0.0049875
        k(  340) = (   0.0250000  -0.1429845  -0.0267811), wk =   0.0049875
        k(  341) = (   0.0000000  -0.1429845   0.0000000), wk =   0.0049875
        k(  342) = (   0.0250000  -0.1429845   0.0000000), wk =   0.0049875
        k(  343) = (   0.0500000  -0.1429845   0.0000000), wk =   0.0049875
        k(  344) = (   0.0750000  -0.1429845   0.0000000), wk =   0.0049875
        k(  345) = (   0.1000000  -0.1429845   0.0000000), wk =   0.0049875
        k(  346) = (   0.1250000  -0.1429845   0.0000000), wk =   0.0049875
        k(  347) = (   0.1500000  -0.1429845   0.0000000), wk =   0.0049875
        k(  348) = (   0.1750000  -0.1429845   0.0000000), wk =   0.0049875
        k(  349) = (   0.2000000  -0.1429845   0.0000000), wk =   0.0049875
        k(  350) = (   0.2250000  -0.1429845   0.0000000), wk =   0.0049875
        k(  351) = (   0.2500000  -0.1429845   0.0000000), wk =   0.0049875
        k(  352) = (   0.2750000  -0.1429845   0.0000000), wk =   0.0049875
        k(  353) = (   0.3000000  -0.1429845   0.0000000), wk =   0.0049875
        k(  354) = (   0.3250000  -0.1429845   0.0000000), wk =   0.0049875
        k(  355) = (   0.3500000  -0.1429845   0.0000000), wk =   0.0049875
        k(  356) = (   0.3750000  -0.1429845   0.0000000), wk =   0.0049875
        k(  357) = (   0.4000000  -0.1429845   0.0000000), wk =   0.0049875
        k(  358) = (   0.4250000  -0.1429845   0.0000000), wk =   0.0049875
        k(  359) = (   0.4500000  -0.1429845   0.0000000), wk =   0.0049875
        k(  360) = (   0.4750000  -0.1429845   0.0000000), wk =   0.0049875
        k(  361) = (   0.5000000  -0.1429845   0.0000000), wk =   0.0049875
        k(  362) = (   0.5000000  -0.1358353   0.0000000), wk =   0.0049875
        k(  363) = (   0.5000000  -0.1286860   0.0000000), wk =   0.0049875
        k(  364) = (   0.5000000  -0.1215368   0.0000000), wk =   0.0049875
        k(  365) = (   0.5000000  -0.1143876   0.0000000), wk =   0.0049875
        k(  366) = (   0.5000000  -0.1072384   0.0000000), wk =   0.0049875
        k(  367) = (   0.5000000  -0.1000891   0.0000000), wk =   0.0049875
        k(  368) = (   0.5000000  -0.0929399   0.0000000), wk =   0.0049875
        k(  369) = (   0.5000000  -0.0857907   0.0000000), wk =   0.0049875
        k(  370) = (   0.5000000  -0.0786415   0.0000000), wk =   0.0049875
        k(  371) = (   0.5000000  -0.0714922   0.0000000), wk =   0.0049875
        k(  372) = (   0.5000000  -0.0643430   0.0000000), wk =   0.0049875
        k(  373) = (   0.5000000  -0.0571938   0.0000000), wk =   0.0049875
        k(  374) = (   0.5000000  -0.0500446   0.0000000), wk =   0.0049875
        k(  375) = (   0.5000000  -0.0428953   0.0000000), wk =   0.0049875
        k(  376) = (   0.5000000  -0.0357461   0.0000000), wk =   0.0049875
        k(  377) = (   0.5000000  -0.0285969   0.0000000), wk =   0.0049875
        k(  378) = (   0.5000000  -0.0214477   0.0000000), wk =   0.0049875
        k(  379) = (   0.5000000  -0.0142984   0.0000000), wk =   0.0049875
        k(  380) = (   0.5000000  -0.0071492   0.0000000), wk =   0.0049875
        k(  381) = (   0.5000000   0.0000000   0.0000000), wk =   0.0049875
        k(  382) = (   0.4750000   0.0000000   0.0000000), wk =   0.0049875
        k(  383) = (   0.4500000   0.0000000   0.0000000), wk =   0.0049875
        k(  384) = (   0.4250000   0.0000000   0.0000000), wk =   0.0049875
        k(  385) = (   0.4000000   0.0000000   0.0000000), wk =   0.0049875
        k(  386) = (   0.3750000   0.0000000   0.0000000), wk =   0.0049875
        k(  387) = (   0.3500000   0.0000000   0.0000000), wk =   0.0049875
        k(  388) = (   0.3250000   0.0000000   0.0000000), wk =   0.0049875
        k(  389) = (   0.3000000   0.0000000   0.0000000), wk =   0.0049875
        k(  390) = (   0.2750000   0.0000000   0.0000000), wk =   0.0049875
        k(  391) = (   0.2500000   0.0000000   0.0000000), wk =   0.0049875
        k(  392) = (   0.2250000   0.0000000   0.0000000), wk =   0.0049875
        k(  393) = (   0.2000000   0.0000000   0.0000000), wk =   0.0049875
        k(  394) = (   0.1750000   0.0000000   0.0000000), wk =   0.0049875
        k(  395) = (   0.1500000   0.0000000   0.0000000), wk =   0.0049875
        k(  396) = (   0.1250000   0.0000000   0.0000000), wk =   0.0049875
        k(  397) = (   0.1000000   0.0000000   0.0000000), wk =   0.0049875
        k(  398) = (   0.0750000   0.0000000   0.0000000), wk =   0.0049875
        k(  399) = (   0.0500000   0.0000000   0.0000000), wk =   0.0049875
        k(  400) = (   0.0250000   0.0000000   0.0000000), wk =   0.0049875
        k(  401) = (   0.0000000   0.0000000   0.0000000), wk =   0.0049875

                       cryst. coord.
        k(    1) = (   0.0000000   0.0000000   0.0000000), wk =   0.0049875
        k(    2) = (   0.0000000   0.0250000   0.0000000), wk =   0.0049875
        k(    3) = (   0.0000000   0.0500000   0.0000000), wk =   0.0049875
        k(    4) = (   0.0000000   0.0750000   0.0000000), wk =   0.0049875
        k(    5) = (   0.0000000   0.1000000   0.0000000), wk =   0.0049875
        k(    6) = (   0.0000000   0.1250000   0.0000000), wk =   0.0049875
        k(    7) = (   0.0000000   0.1500000   0.0000000), wk =   0.0049875
        k(    8) = (   0.0000000   0.1750000   0.0000000), wk =   0.0049875
        k(    9) = (   0.0000000   0.2000000   0.0000000), wk =   0.0049875
        k(   10) = (   0.0000000   0.2250000   0.0000000), wk =   0.0049875
        k(   11) = (   0.0000000   0.2500000   0.0000000), wk =   0.0049875
        k(   12) = (   0.0000000   0.2750000   0.0000000), wk =   0.0049875
        k(   13) = (   0.0000000   0.3000000   0.0000000), wk =   0.0049875
        k(   14) = (   0.0000000   0.3250000   0.0000000), wk =   0.0049875
        k(   15) = (   0.0000000   0.3500000   0.0000000), wk =   0.0049875
        k(   16) = (   0.0000000   0.3750000   0.0000000), wk =   0.0049875
        k(   17) = (   0.0000000   0.4000000   0.0000000), wk =   0.0049875
        k(   18) = (   0.0000000   0.4250000   0.0000000), wk =   0.0049875
        k(   19) = (   0.0000000   0.4500000   0.0000000), wk =   0.0049875
        k(   20) = (   0.0000000   0.4750000   0.0000000), wk =   0.0049875
        k(   21) = (   0.0000000   0.5000000   0.0000000), wk =   0.0049875
        k(   22) = (   0.0000000   0.5000000   0.0250000), wk =   0.0049875
        k(   23) = (   0.0000000   0.5000000   0.0500000), wk =   0.0049875
        k(   24) = (   0.0000000   0.5000000   0.0750000), wk =   0.0049875
        k(   25) = (   0.0000000   0.5000000   0.1000000), wk =   0.0049875
        k(   26) = (   0.0000000   0.5000000   0.1250000), wk =   0.0049875
        k(   27) = (   0.0000000   0.5000000   0.1500000), wk =   0.0049875
        k(   28) = (   0.0000000   0.5000000   0.1750000), wk =   0.0049875
        k(   29) = (   0.0000000   0.5000000   0.2000000), wk =   0.0049875
        k(   30) = (   0.0000000   0.5000000   0.2250000), wk =   0.0049875
        k(   31) = (   0.0000000   0.5000000   0.2500000), wk =   0.0049875
        k(   32) = (   0.0000000   0.5000000   0.2750000), wk =   0.0049875
        k(   33) = (   0.0000000   0.5000000   0.3000000), wk =   0.0049875
        k(   34) = (   0.0000000   0.5000000   0.3250000), wk =   0.0049875
        k(   35) = (   0.0000000   0.5000000   0.3500000), wk =   0.0049875
        k(   36) = (   0.0000000   0.5000000   0.3750000), wk =   0.0049875
        k(   37) = (   0.0000000   0.5000000   0.4000000), wk =   0.0049875
        k(   38) = (   0.0000000   0.5000000   0.4250000), wk =   0.0049875
        k(   39) = (   0.0000000   0.5000000   0.4500000), wk =   0.0049875
        k(   40) = (   0.0000000   0.5000000   0.4750000), wk =   0.0049875
        k(   41) = (   0.0000000   0.5000000   0.5000000), wk =   0.0049875
        k(   42) = (   0.0000000   0.4750000   0.5000000), wk =   0.0049875
        k(   43) = (   0.0000000   0.4500000   0.5000000), wk =   0.0049875
        k(   44) = (   0.0000000   0.4250000   0.5000000), wk =   0.0049875
        k(   45) = (   0.0000000   0.4000000   0.5000000), wk =   0.0049875
        k(   46) = (   0.0000000   0.3750000   0.5000000), wk =   0.0049875
        k(   47) = (   0.0000000   0.3500000   0.5000000), wk =   0.0049875
        k(   48) = (   0.0000000   0.3250000   0.5000000), wk =   0.0049875
        k(   49) = (   0.0000000   0.3000000   0.5000000), wk =   0.0049875
        k(   50) = (   0.0000000   0.2750000   0.5000000), wk =   0.0049875
        k(   51) = (   0.0000000   0.2500000   0.5000000), wk =   0.0049875
        k(   52) = (   0.0000000   0.2250000   0.5000000), wk =   0.0049875
        k(   53) = (   0.0000000   0.2000000   0.5000000), wk =   0.0049875
        k(   54) = (   0.0000000   0.1750000   0.5000000), wk =   0.0049875
        k(   55) = (   0.0000000   0.1500000   0.5000000), wk =   0.0049875
        k(   56) = (   0.0000000   0.1250000   0.5000000), wk =   0.0049875
        k(   57) = (   0.0000000   0.1000000   0.5000000), wk =   0.0049875
        k(   58) = (   0.0000000   0.0750000   0.5000000), wk =   0.0049875
        k(   59) = (   0.0000000   0.0500000   0.5000000), wk =   0.0049875
        k(   60) = (   0.0000000   0.0250000   0.5000000), wk =   0.0049875
        k(   61) = (   0.0000000   0.0000000   0.5000000), wk =   0.0049875
        k(   62) = (   0.0000000   0.0000000   0.4750000), wk =   0.0049875
        k(   63) = (   0.0000000   0.0000000   0.4500000), wk =   0.0049875
        k(   64) = (   0.0000000   0.0000000   0.4250000), wk =   0.0049875
        k(   65) = (   0.0000000   0.0000000   0.4000000), wk =   0.0049875
        k(   66) = (   0.0000000   0.0000000   0.3750000), wk =   0.0049875
        k(   67) = (   0.0000000   0.0000000   0.3500000), wk =   0.0049875
        k(   68) = (   0.0000000   0.0000000   0.3250000), wk =   0.0049875
        k(   69) = (   0.0000000   0.0000000   0.3000000), wk =   0.0049875
        k(   70) = (   0.0000000   0.0000000   0.2750000), wk =   0.0049875
        k(   71) = (   0.0000000   0.0000000   0.2500000), wk =   0.0049875
        k(   72) = (   0.0000000   0.0000000   0.2250000), wk =   0.0049875
        k(   73) = (   0.0000000   0.0000000   0.2000000), wk =   0.0049875
        k(   74) = (   0.0000000   0.0000000   0.1750000), wk =   0.0049875
        k(   75) = (   0.0000000   0.0000000   0.1500000), wk =   0.0049875
        k(   76) = (   0.0000000   0.0000000   0.1250000), wk =   0.0049875
        k(   77) = (   0.0000000   0.0000000   0.1000000), wk =   0.0049875
        k(   78) = (   0.0000000   0.0000000   0.0750000), wk =   0.0049875
        k(   79) = (   0.0000000   0.0000000   0.0500000), wk =   0.0049875
        k(   80) = (   0.0000000   0.0000000   0.0250000), wk =   0.0049875
        k(   81) = (   0.0000000   0.0000000   0.0000000), wk =   0.0049875
        k(   82) = (  -0.0250000   0.0000000   0.0250000), wk =   0.0049875
        k(   83) = (  -0.0500000   0.0000000   0.0500000), wk =   0.0049875
        k(   84) = (  -0.0750000   0.0000000   0.0750000), wk =   0.0049875
        k(   85) = (  -0.1000000   0.0000000   0.1000000), wk =   0.0049875
        k(   86) = (  -0.1250000   0.0000000   0.1250000), wk =   0.0049875
        k(   87) = (  -0.1500000   0.0000000   0.1500000), wk =   0.0049875
        k(   88) = (  -0.1750000   0.0000000   0.1750000), wk =   0.0049875
        k(   89) = (  -0.2000000   0.0000000   0.2000000), wk =   0.0049875
        k(   90) = (  -0.2250000   0.0000000   0.2250000), wk =   0.0049875
        k(   91) = (  -0.2500000   0.0000000   0.2500000), wk =   0.0049875
        k(   92) = (  -0.2750000   0.0000000   0.2750000), wk =   0.0049875
        k(   93) = (  -0.3000000   0.0000000   0.3000000), wk =   0.0049875
        k(   94) = (  -0.3250000   0.0000000   0.3250000), wk =   0.0049875
        k(   95) = (  -0.3500000   0.0000000   0.3500000), wk =   0.0049875
        k(   96) = (  -0.3750000   0.0000000   0.3750000), wk =   0.0049875
        k(   97) = (  -0.4000000   0.0000000   0.4000000), wk =   0.0049875
        k(   98) = (  -0.4250000   0.0000000   0.4250000), wk =   0.0049875
        k(   99) = (  -0.4500000   0.0000000   0.4500000), wk =   0.0049875
        k(  100) = (  -0.4750000   0.0000000   0.4750000), wk =   0.0049875
        k(  101) = (  -0.5000000   0.0000000   0.5000000), wk =   0.0049875
        k(  102) = (  -0.5000000   0.0250000   0.5000000), wk =   0.0049875
        k(  103) = (  -0.5000000   0.0500000   0.5000000), wk =   0.0049875
        k(  104) = (  -0.5000000   0.0750000   0.5000000), wk =   0.0049875
        k(  105) = (  -0.5000000   0.1000000   0.5000000), wk =   0.0049875
        k(  106) = (  -0.5000000   0.1250000   0.5000000), wk =   0.0049875
        k(  107) = (  -0.5000000   0.1500000   0.5000000), wk =   0.0049875
        k(  108) = (  -0.5000000   0.1750000   0.5000000), wk =   0.0049875
        k(  109) = (  -0.5000000   0.2000000   0.5000000), wk =   0.0049875
        k(  110) = (  -0.5000000   0.2250000   0.5000000), wk =   0.0049875
        k(  111) = (  -0.5000000   0.2500000   0.5000000), wk =   0.0049875
        k(  112) = (  -0.5000000   0.2750000   0.5000000), wk =   0.0049875
        k(  113) = (  -0.5000000   0.3000000   0.5000000), wk =   0.0049875
        k(  114) = (  -0.5000000   0.3250000   0.5000000), wk =   0.0049875
        k(  115) = (  -0.5000000   0.3500000   0.5000000), wk =   0.0049875
        k(  116) = (  -0.5000000   0.3750000   0.5000000), wk =   0.0049875
        k(  117) = (  -0.5000000   0.4000000   0.5000000), wk =   0.0049875
        k(  118) = (  -0.5000000   0.4250000   0.5000000), wk =   0.0049875
        k(  119) = (  -0.5000000   0.4500000   0.5000000), wk =   0.0049875
        k(  120) = (  -0.5000000   0.4750000   0.5000000), wk =   0.0049875
        k(  121) = (  -0.5000000   0.5000000   0.5000000), wk =   0.0049875
        k(  122) = (  -0.4750000   0.5000000   0.4750000), wk =   0.0049875
        k(  123) = (  -0.4500000   0.5000000   0.4500000), wk =   0.0049875
        k(  124) = (  -0.4250000   0.5000000   0.4250000), wk =   0.0049875
        k(  125) = (  -0.4000000   0.5000000   0.4000000), wk =   0.0049875
        k(  126) = (  -0.3750000   0.5000000   0.3750000), wk =   0.0049875
        k(  127) = (  -0.3500000   0.5000000   0.3500000), wk =   0.0049875
        k(  128) = (  -0.3250000   0.5000000   0.3250000), wk =   0.0049875
        k(  129) = (  -0.3000000   0.5000000   0.3000000), wk =   0.0049875
        k(  130) = (  -0.2750000   0.5000000   0.2750000), wk =   0.0049875
        k(  131) = (  -0.2500000   0.5000000   0.2500000), wk =   0.0049875
        k(  132) = (  -0.2250000   0.5000000   0.2250000), wk =   0.0049875
        k(  133) = (  -0.2000000   0.5000000   0.2000000), wk =   0.0049875
        k(  134) = (  -0.1750000   0.5000000   0.1750000), wk =   0.0049875
        k(  135) = (  -0.1500000   0.5000000   0.1500000), wk =   0.0049875
        k(  136) = (  -0.1250000   0.5000000   0.1250000), wk =   0.0049875
        k(  137) = (  -0.1000000   0.5000000   0.1000000), wk =   0.0049875
        k(  138) = (  -0.0750000   0.5000000   0.0750000), wk =   0.0049875
        k(  139) = (  -0.0500000   0.5000000   0.0500000), wk =   0.0049875
        k(  140) = (  -0.0250000   0.5000000   0.0250000), wk =   0.0049875
        k(  141) = (   0.0000000   0.5000000   0.0000000), wk =   0.0049875
        k(  142) = (  -0.0250000   0.5000000   0.0000000), wk =   0.0049875
        k(  143) = (  -0.0500000   0.5000000   0.0000000), wk =   0.0049875
        k(  144) = (  -0.0750000   0.5000000   0.0000000), wk =   0.0049875
        k(  145) = (  -0.1000000   0.5000000   0.0000000), wk =   0.0049875
        k(  146) = (  -0.1250000   0.5000000   0.0000000), wk =   0.0049875
        k(  147) = (  -0.1500000   0.5000000   0.0000000), wk =   0.0049875
        k(  148) = (  -0.1750000   0.5000000   0.0000000), wk =   0.0049875
        k(  149) = (  -0.2000000   0.5000000   0.0000000), wk =   0.0049875
        k(  150) = (  -0.2250000   0.5000000   0.0000000), wk =   0.0049875
        k(  151) = (  -0.2500000   0.5000000   0.0000000), wk =   0.0049875
        k(  152) = (  -0.2750000   0.5000000   0.0000000), wk =   0.0049875
        k(  153) = (  -0.3000000   0.5000000   0.0000000), wk =   0.0049875
        k(  154) = (  -0.3250000   0.5000000   0.0000000), wk =   0.0049875
        k(  155) = (  -0.3500000   0.5000000   0.0000000), wk =   0.0049875
        k(  156) = (  -0.3750000   0.5000000   0.0000000), wk =   0.0049875
        k(  157) = (  -0.4000000   0.5000000   0.0000000), wk =   0.0049875
        k(  158) = (  -0.4250000   0.5000000   0.0000000), wk =   0.0049875
        k(  159) = (  -0.4500000   0.5000000   0.0000000), wk =   0.0049875
        k(  160) = (  -0.4750000   0.5000000   0.0000000), wk =   0.0049875
        k(  161) = (  -0.5000000   0.5000000   0.0000000), wk =   0.0049875
        k(  162) = (  -0.5000000   0.4750000   0.0000000), wk =   0.0049875
        k(  163) = (  -0.5000000   0.4500000   0.0000000), wk =   0.0049875
        k(  164) = (  -0.5000000   0.4250000   0.0000000), wk =   0.0049875
        k(  165) = (  -0.5000000   0.4000000   0.0000000), wk =   0.0049875
        k(  166) = (  -0.5000000   0.3750000   0.0000000), wk =   0.0049875
        k(  167) = (  -0.5000000   0.3500000   0.0000000), wk =   0.0049875
        k(  168) = (  -0.5000000   0.3250000   0.0000000), wk =   0.0049875
        k(  169) = (  -0.5000000   0.3000000   0.0000000), wk =   0.0049875
        k(  170) = (  -0.5000000   0.2750000   0.0000000), wk =   0.0049875
        k(  171) = (  -0.5000000   0.2500000   0.0000000), wk =   0.0049875
        k(  172) = (  -0.5000000   0.2250000   0.0000000), wk =   0.0049875
        k(  173) = (  -0.5000000   0.2000000   0.0000000), wk =   0.0049875
        k(  174) = (  -0.5000000   0.1750000   0.0000000), wk =   0.0049875
        k(  175) = (  -0.5000000   0.1500000   0.0000000), wk =   0.0049875
        k(  176) = (  -0.5000000   0.1250000   0.0000000), wk =   0.0049875
        k(  177) = (  -0.5000000   0.1000000   0.0000000), wk =   0.0049875
        k(  178) = (  -0.5000000   0.0750000   0.0000000), wk =   0.0049875
        k(  179) = (  -0.5000000   0.0500000   0.0000000), wk =   0.0049875
        k(  180) = (  -0.5000000   0.0250000   0.0000000), wk =   0.0049875
        k(  181) = (  -0.5000000   0.0000000   0.0000000), wk =   0.0049875
        k(  182) = (  -0.4750000   0.0000000   0.0000000), wk =   0.0049875
        k(  183) = (  -0.4500000   0.0000000   0.0000000), wk =   0.0049875
        k(  184) = (  -0.4250000   0.0000000   0.0000000), wk =   0.0049875
        k(  185) = (  -0.4000000   0.0000000   0.0000000), wk =   0.0049875
        k(  186) = (  -0.3750000   0.0000000   0.0000000), wk =   0.0049875
        k(  187) = (  -0.3500000   0.0000000   0.0000000), wk =   0.0049875
        k(  188) = (  -0.3250000   0.0000000   0.0000000), wk =   0.0049875
        k(  189) = (  -0.3000000   0.0000000   0.0000000), wk =   0.0049875
        k(  190) = (  -0.2750000   0.0000000   0.0000000), wk =   0.0049875
        k(  191) = (  -0.2500000   0.0000000   0.0000000), wk =   0.0049875
        k(  192) = (  -0.2250000   0.0000000   0.0000000), wk =   0.0049875
        k(  193) = (  -0.2000000   0.0000000   0.0000000), wk =   0.0049875
        k(  194) = (  -0.1750000   0.0000000   0.0000000), wk =   0.0049875
        k(  195) = (  -0.1500000   0.0000000   0.0000000), wk =   0.0049875
        k(  196) = (  -0.1250000   0.0000000   0.0000000), wk =   0.0049875
        k(  197) = (  -0.1000000   0.0000000   0.0000000), wk =   0.0049875
        k(  198) = (  -0.0750000   0.0000000   0.0000000), wk =   0.0049875
        k(  199) = (  -0.0500000   0.0000000   0.0000000), wk =   0.0049875
        k(  200) = (  -0.0250000   0.0000000   0.0000000), wk =   0.0049875
        k(  201) = (   0.0000000   0.0000000   0.0000000), wk =   0.0049875
        k(  202) = (   0.0000000  -0.0250000   0.0000000), wk =   0.0049875
        k(  203) = (   0.0000000  -0.0500000   0.0000000), wk =   0.0049875
        k(  204) = (   0.0000000  -0.0750000   0.0000000), wk =   0.0049875
        k(  205) = (   0.0000000  -0.1000000   0.0000000), wk =   0.0049875
        k(  206) = (   0.0000000  -0.1250000   0.0000000), wk =   0.0049875
        k(  207) = (   0.0000000  -0.1500000   0.0000000), wk =   0.0049875
        k(  208) = (   0.0000000  -0.1750000   0.0000000), wk =   0.0049875
        k(  209) = (   0.0000000  -0.2000000   0.0000000), wk =   0.0049875
        k(  210) = (   0.0000000  -0.2250000   0.0000000), wk =   0.0049875
        k(  211) = (   0.0000000  -0.2500000   0.0000000), wk =   0.0049875
        k(  212) = (   0.0000000  -0.2750000   0.0000000), wk =   0.0049875
        k(  213) = (   0.0000000  -0.3000000   0.0000000), wk =   0.0049875
        k(  214) = (   0.0000000  -0.3250000   0.0000000), wk =   0.0049875
        k(  215) = (   0.0000000  -0.3500000   0.0000000), wk =   0.0049875
        k(  216) = (   0.0000000  -0.3750000   0.0000000), wk =   0.0049875
        k(  217) = (   0.0000000  -0.4000000   0.0000000), wk =   0.0049875
        k(  218) = (   0.0000000  -0.4250000   0.0000000), wk =   0.0049875
        k(  219) = (   0.0000000  -0.4500000   0.0000000), wk =   0.0049875
        k(  220) = (   0.0000000  -0.4750000   0.0000000), wk =   0.0049875
        k(  221) = (   0.0000000  -0.5000000   0.0000000), wk =   0.0049875
        k(  222) = (   0.0000000  -0.5000000  -0.0250000), wk =   0.0049875
        k(  223) = (   0.0000000  -0.5000000  -0.0500000), wk =   0.0049875
        k(  224) = (   0.0000000  -0.5000000  -0.0750000), wk =   0.0049875
        k(  225) = (   0.0000000  -0.5000000  -0.1000000), wk =   0.0049875
        k(  226) = (   0.0000000  -0.5000000  -0.1250000), wk =   0.0049875
        k(  227) = (   0.0000000  -0.5000000  -0.1500000), wk =   0.0049875
        k(  228) = (   0.0000000  -0.5000000  -0.1750000), wk =   0.0049875
        k(  229) = (   0.0000000  -0.5000000  -0.2000000), wk =   0.0049875
        k(  230) = (   0.0000000  -0.5000000  -0.2250000), wk =   0.0049875
        k(  231) = (   0.0000000  -0.5000000  -0.2500000), wk =   0.0049875
        k(  232) = (   0.0000000  -0.5000000  -0.2750000), wk =   0.0049875
        k(  233) = (   0.0000000  -0.5000000  -0.3000000), wk =   0.0049875
        k(  234) = (   0.0000000  -0.5000000  -0.3250000), wk =   0.0049875
        k(  235) = (   0.0000000  -0.5000000  -0.3500000), wk =   0.0049875
        k(  236) = (   0.0000000  -0.5000000  -0.3750000), wk =   0.0049875
        k(  237) = (   0.0000000  -0.5000000  -0.4000000), wk =   0.0049875
        k(  238) = (   0.0000000  -0.5000000  -0.4250000), wk =   0.0049875
        k(  239) = (   0.0000000  -0.5000000  -0.4500000), wk =   0.0049875
        k(  240) = (   0.0000000  -0.5000000  -0.4750000), wk =   0.0049875
        k(  241) = (   0.0000000  -0.5000000  -0.5000000), wk =   0.0049875
        k(  242) = (   0.0000000  -0.4750000  -0.5000000), wk =   0.0049875
        k(  243) = (   0.0000000  -0.4500000  -0.5000000), wk =   0.0049875
        k(  244) = (   0.0000000  -0.4250000  -0.5000000), wk =   0.0049875
        k(  245) = (   0.0000000  -0.4000000  -0.5000000), wk =   0.0049875
        k(  246) = (   0.0000000  -0.3750000  -0.5000000), wk =   0.0049875
        k(  247) = (   0.0000000  -0.3500000  -0.5000000), wk =   0.0049875
        k(  248) = (   0.0000000  -0.3250000  -0.5000000), wk =   0.0049875
        k(  249) = (   0.0000000  -0.3000000  -0.5000000), wk =   0.0049875
        k(  250) = (   0.0000000  -0.2750000  -0.5000000), wk =   0.0049875
        k(  251) = (   0.0000000  -0.2500000  -0.5000000), wk =   0.0049875
        k(  252) = (   0.0000000  -0.2250000  -0.5000000), wk =   0.0049875
        k(  253) = (   0.0000000  -0.2000000  -0.5000000), wk =   0.0049875
        k(  254) = (   0.0000000  -0.1750000  -0.5000000), wk =   0.0049875
        k(  255) = (   0.0000000  -0.1500000  -0.5000000), wk =   0.0049875
        k(  256) = (   0.0000000  -0.1250000  -0.5000000), wk =   0.0049875
        k(  257) = (   0.0000000  -0.1000000  -0.5000000), wk =   0.0049875
        k(  258) = (   0.0000000  -0.0750000  -0.5000000), wk =   0.0049875
        k(  259) = (   0.0000000  -0.0500000  -0.5000000), wk =   0.0049875
        k(  260) = (   0.0000000  -0.0250000  -0.5000000), wk =   0.0049875
        k(  261) = (   0.0000000   0.0000000  -0.5000000), wk =   0.0049875
        k(  262) = (   0.0000000   0.0000000  -0.4750000), wk =   0.0049875
        k(  263) = (   0.0000000   0.0000000  -0.4500000), wk =   0.0049875
        k(  264) = (   0.0000000   0.0000000  -0.4250000), wk =   0.0049875
        k(  265) = (   0.0000000   0.0000000  -0.4000000), wk =   0.0049875
        k(  266) = (   0.0000000   0.0000000  -0.3750000), wk =   0.0049875
        k(  267) = (   0.0000000   0.0000000  -0.3500000), wk =   0.0049875
        k(  268) = (   0.0000000   0.0000000  -0.3250000), wk =   0.0049875
        k(  269) = (   0.0000000   0.0000000  -0.3000000), wk =   0.0049875
        k(  270) = (   0.0000000   0.0000000  -0.2750000), wk =   0.0049875
        k(  271) = (   0.0000000   0.0000000  -0.2500000), wk =   0.0049875
        k(  272) = (   0.0000000   0.0000000  -0.2250000), wk =   0.0049875
        k(  273) = (   0.0000000   0.0000000  -0.2000000), wk =   0.0049875
        k(  274) = (   0.0000000   0.0000000  -0.1750000), wk =   0.0049875
        k(  275) = (   0.0000000   0.0000000  -0.1500000), wk =   0.0049875
        k(  276) = (   0.0000000   0.0000000  -0.1250000), wk =   0.0049875
        k(  277) = (   0.0000000   0.0000000  -0.1000000), wk =   0.0049875
        k(  278) = (   0.0000000   0.0000000  -0.0750000), wk =   0.0049875
        k(  279) = (   0.0000000   0.0000000  -0.0500000), wk =   0.0049875
        k(  280) = (   0.0000000   0.0000000  -0.0250000), wk =   0.0049875
        k(  281) = (   0.0000000   0.0000000   0.0000000), wk =   0.0049875
        k(  282) = (   0.0250000   0.0000000  -0.0250000), wk =   0.0049875
        k(  283) = (   0.0500000   0.0000000  -0.0500000), wk =   0.0049875
        k(  284) = (   0.0750000   0.0000000  -0.0750000), wk =   0.0049875
        k(  285) = (   0.1000000   0.0000000  -0.1000000), wk =   0.0049875
        k(  286) = (   0.1250000   0.0000000  -0.1250000), wk =   0.0049875
        k(  287) = (   0.1500000   0.0000000  -0.1500000), wk =   0.0049875
        k(  288) = (   0.1750000   0.0000000  -0.1750000), wk =   0.0049875
        k(  289) = (   0.2000000   0.0000000  -0.2000000), wk =   0.0049875
        k(  290) = (   0.2250000   0.0000000  -0.2250000), wk =   0.0049875
        k(  291) = (   0.2500000   0.0000000  -0.2500000), wk =   0.0049875
        k(  292) = (   0.2750000   0.0000000  -0.2750000), wk =   0.0049875
        k(  293) = (   0.3000000   0.0000000  -0.3000000), wk =   0.0049875
        k(  294) = (   0.3250000   0.0000000  -0.3250000), wk =   0.0049875
        k(  295) = (   0.3500000   0.0000000  -0.3500000), wk =   0.0049875
        k(  296) = (   0.3750000   0.0000000  -0.3750000), wk =   0.0049875
        k(  297) = (   0.4000000   0.0000000  -0.4000000), wk =   0.0049875
        k(  298) = (   0.4250000   0.0000000  -0.4250000), wk =   0.0049875
        k(  299) = (   0.4500000   0.0000000  -0.4500000), wk =   0.0049875
        k(  300) = (   0.4750000   0.0000000  -0.4750000), wk =   0.0049875
        k(  301) = (   0.5000000   0.0000000  -0.5000000), wk =   0.0049875
        k(  302) = (   0.5000000  -0.0250000  -0.5000000), wk =   0.0049875
        k(  303) = (   0.5000000  -0.0500000  -0.5000000), wk =   0.0049875
        k(  304) = (   0.5000000  -0.0750000  -0.5000000), wk =   0.0049875
        k(  305) = (   0.5000000  -0.1000000  -0.5000000), wk =   0.0049875
        k(  306) = (   0.5000000  -0.1250000  -0.5000000), wk =   0.0049875
        k(  307) = (   0.5000000  -0.1500000  -0.5000000), wk =   0.0049875
        k(  308) = (   0.5000000  -0.1750000  -0.5000000), wk =   0.0049875
        k(  309) = (   0.5000000  -0.2000000  -0.5000000), wk =   0.0049875
        k(  310) = (   0.5000000  -0.2250000  -0.5000000), wk =   0.0049875
        k(  311) = (   0.5000000  -0.2500000  -0.5000000), wk =   0.0049875
        k(  312) = (   0.5000000  -0.2750000  -0.5000000), wk =   0.0049875
        k(  313) = (   0.5000000  -0.3000000  -0.5000000), wk =   0.0049875
        k(  314) = (   0.5000000  -0.3250000  -0.5000000), wk =   0.0049875
        k(  315) = (   0.5000000  -0.3500000  -0.5000000), wk =   0.0049875
        k(  316) = (   0.5000000  -0.3750000  -0.5000000), wk =   0.0049875
        k(  317) = (   0.5000000  -0.4000000  -0.5000000), wk =   0.0049875
        k(  318) = (   0.5000000  -0.4250000  -0.5000000), wk =   0.0049875
        k(  319) = (   0.5000000  -0.4500000  -0.5000000), wk =   0.0049875
        k(  320) = (   0.5000000  -0.4750000  -0.5000000), wk =   0.0049875
        k(  321) = (   0.5000000  -0.5000000  -0.5000000), wk =   0.0049875
        k(  322) = (   0.4750000  -0.5000000  -0.4750000), wk =   0.0049875
        k(  323) = (   0.4500000  -0.5000000  -0.4500000), wk =   0.0049875
        k(  324) = (   0.4250000  -0.5000000  -0.4250000), wk =   0.0049875
        k(  325) = (   0.4000000  -0.5000000  -0.4000000), wk =   0.0049875
        k(  326) = (   0.3750000  -0.5000000  -0.3750000), wk =   0.0049875
        k(  327) = (   0.3500000  -0.5000000  -0.3500000), wk =   0.0049875
        k(  328) = (   0.3250000  -0.5000000  -0.3250000), wk =   0.0049875
        k(  329) = (   0.3000000  -0.5000000  -0.3000000), wk =   0.0049875
        k(  330) = (   0.2750000  -0.5000000  -0.2750000), wk =   0.0049875
        k(  331) = (   0.2500000  -0.5000000  -0.2500000), wk =   0.0049875
        k(  332) = (   0.2250000  -0.5000000  -0.2250000), wk =   0.0049875
        k(  333) = (   0.2000000  -0.5000000  -0.2000000), wk =   0.0049875
        k(  334) = (   0.1750000  -0.5000000  -0.1750000), wk =   0.0049875
        k(  335) = (   0.1500000  -0.5000000  -0.1500000), wk =   0.0049875
        k(  336) = (   0.1250000  -0.5000000  -0.1250000), wk =   0.0049875
        k(  337) = (   0.1000000  -0.5000000  -0.1000000), wk =   0.0049875
        k(  338) = (   0.0750000  -0.5000000  -0.0750000), wk =   0.0049875
        k(  339) = (   0.0500000  -0.5000000  -0.0500000), wk =   0.0049875
        k(  340) = (   0.0250000  -0.5000000  -0.0250000), wk =   0.0049875
        k(  341) = (   0.0000000  -0.5000000   0.0000000), wk =   0.0049875
        k(  342) = (   0.0250000  -0.5000000   0.0000000), wk =   0.0049875
        k(  343) = (   0.0500000  -0.5000000   0.0000000), wk =   0.0049875
        k(  344) = (   0.0750000  -0.5000000   0.0000000), wk =   0.0049875
        k(  345) = (   0.1000000  -0.5000000   0.0000000), wk =   0.0049875
        k(  346) = (   0.1250000  -0.5000000   0.0000000), wk =   0.0049875
        k(  347) = (   0.1500000  -0.5000000   0.0000000), wk =   0.0049875
        k(  348) = (   0.1750000  -0.5000000   0.0000000), wk =   0.0049875
        k(  349) = (   0.2000000  -0.5000000   0.0000000), wk =   0.0049875
        k(  350) = (   0.2250000  -0.5000000   0.0000000), wk =   0.0049875
        k(  351) = (   0.2500000  -0.5000000   0.0000000), wk =   0.0049875
        k(  352) = (   0.2750000  -0.5000000   0.0000000), wk =   0.0049875
        k(  353) = (   0.3000000  -0.5000000   0.0000000), wk =   0.0049875
        k(  354) = (   0.3250000  -0.5000000   0.0000000), wk =   0.0049875
        k(  355) = (   0.3500000  -0.5000000   0.0000000), wk =   0.0049875
        k(  356) = (   0.3750000  -0.5000000   0.0000000), wk =   0.0049875
        k(  357) = (   0.4000000  -0.5000000   0.0000000), wk =   0.0049875
        k(  358) = (   0.4250000  -0.5000000   0.0000000), wk =   0.0049875
        k(  359) = (   0.4500000  -0.5000000   0.0000000), wk =   0.0049875
        k(  360) = (   0.4750000  -0.5000000   0.0000000), wk =   0.0049875
        k(  361) = (   0.5000000  -0.5000000   0.0000000), wk =   0.0049875
        k(  362) = (   0.5000000  -0.4750000   0.0000000), wk =   0.0049875
        k(  363) = (   0.5000000  -0.4500000   0.0000000), wk =   0.0049875
        k(  364) = (   0.5000000  -0.4250000   0.0000000), wk =   0.0049875
        k(  365) = (   0.5000000  -0.4000000   0.0000000), wk =   0.0049875
        k(  366) = (   0.5000000  -0.3750000   0.0000000), wk =   0.0049875
        k(  367) = (   0.5000000  -0.3500000   0.0000000), wk =   0.0049875
        k(  368) = (   0.5000000  -0.3250000   0.0000000), wk =   0.0049875
        k(  369) = (   0.5000000  -0.3000000   0.0000000), wk =   0.0049875
        k(  370) = (   0.5000000  -0.2750000   0.0000000), wk =   0.0049875
        k(  371) = (   0.5000000  -0.2500000   0.0000000), wk =   0.0049875
        k(  372) = (   0.5000000  -0.2250000   0.0000000), wk =   0.0049875
        k(  373) = (   0.5000000  -0.2000000   0.0000000), wk =   0.0049875
        k(  374) = (   0.5000000  -0.1750000   0.0000000), wk =   0.0049875
        k(  375) = (   0.5000000  -0.1500000   0.0000000), wk =   0.0049875
        k(  376) = (   0.5000000  -0.1250000   0.0000000), wk =   0.0049875
        k(  377) = (   0.5000000  -0.1000000   0.0000000), wk =   0.0049875
        k(  378) = (   0.5000000  -0.0750000   0.0000000), wk =   0.0049875
        k(  379) = (   0.5000000  -0.0500000   0.0000000), wk =   0.0049875
        k(  380) = (   0.5000000  -0.0250000   0.0000000), wk =   0.0049875
        k(  381) = (   0.5000000   0.0000000   0.0000000), wk =   0.0049875
        k(  382) = (   0.4750000   0.0000000   0.0000000), wk =   0.0049875
        k(  383) = (   0.4500000   0.0000000   0.0000000), wk =   0.0049875
        k(  384) = (   0.4250000   0.0000000   0.0000000), wk =   0.0049875
        k(  385) = (   0.4000000   0.0000000   0.0000000), wk =   0.0049875
        k(  386) = (   0.3750000   0.0000000   0.0000000), wk =   0.0049875
        k(  387) = (   0.3500000   0.0000000   0.0000000), wk =   0.0049875
        k(  388) = (   0.3250000   0.0000000   0.0000000), wk =   0.0049875
        k(  389) = (   0.3000000   0.0000000   0.0000000), wk =   0.0049875
        k(  390) = (   0.2750000   0.0000000   0.0000000), wk =   0.0049875
        k(  391) = (   0.2500000   0.0000000   0.0000000), wk =   0.0049875
        k(  392) = (   0.2250000   0.0000000   0.0000000), wk =   0.0049875
        k(  393) = (   0.2000000   0.0000000   0.0000000), wk =   0.0049875
        k(  394) = (   0.1750000   0.0000000   0.0000000), wk =   0.0049875
        k(  395) = (   0.1500000   0.0000000   0.0000000), wk =   0.0049875
        k(  396) = (   0.1250000   0.0000000   0.0000000), wk =   0.0049875
        k(  397) = (   0.1000000   0.0000000   0.0000000), wk =   0.0049875
        k(  398) = (   0.0750000   0.0000000   0.0000000), wk =   0.0049875
        k(  399) = (   0.0500000   0.0000000   0.0000000), wk =   0.0049875
        k(  400) = (   0.0250000   0.0000000   0.0000000), wk =   0.0049875
        k(  401) = (   0.0000000   0.0000000   0.0000000), wk =   0.0049875

     Dense  grid:   185117 G-vectors     FFT dimensions: (  48, 180,  48)

     Smooth grid:    65363 G-vectors     FFT dimensions: (  36, 120,  32)

     Dynamical RAM for                 wfc:       2.50 MB

     Dynamical RAM for     wfc (w. buffer):       2.50 MB

     Dynamical RAM for           str. fact:       5.65 MB

     Dynamical RAM for           local pot:       0.00 MB

     Dynamical RAM for          nlocal pot:       5.24 MB

     Dynamical RAM for                qrad:       3.21 MB

     Dynamical RAM for          rho,v,vnew:      17.97 MB

     Dynamical RAM for           G-vectors:      11.09 MB

     Dynamical RAM for          h,s,v(r/c):       0.07 MB

     Dynamical RAM for          <psi|beta>:       0.01 MB

     Dynamical RAM for                 psi:       4.99 MB

     Dynamical RAM for                hpsi:       4.99 MB

     Dynamical RAM for                spsi:       4.99 MB

     Dynamical RAM for      wfcinit/wfcrot:       5.50 MB

     Dynamical RAM for           addusdens:     152.53 MB

     Estimated static dynamical RAM per process >      69.95 MB

     Estimated max dynamical RAM per process >     222.48 MB

     Check: negative core charge=   -0.000001

     The potential is recalculated from file :
     ./out/aiida.save/charge-density


     negative rho (up, down):  8.320E-05 0.000E+00
     Starting wfcs are   22 randomized atomic wfcs
     Checking if some PAW data can be deallocated... 

     Band Structure Calculation
     Davidson diagonalization with overlap

     Computing kpt #:     1  of   401
     total cpu time spent up to now is        5.2 secs

     Computing kpt #:     2  of   401
     total cpu time spent up to now is        8.4 secs

     Computing kpt #:     3  of   401
     total cpu time spent up to now is       11.5 secs

     Computing kpt #:     4  of   401
     total cpu time spent up to now is       14.4 secs

     Computing kpt #:     5  of   401
     total cpu time spent up to now is       17.5 secs

     Computing kpt #:     6  of   401
     total cpu time spent up to now is       20.6 secs

     Computing kpt #:     7  of   401
     total cpu time spent up to now is       23.6 secs

     Computing kpt #:     8  of   401
     total cpu time spent up to now is       26.8 secs

     Computing kpt #:     9  of   401
     total cpu time spent up to now is       29.9 secs

     Computing kpt #:    10  of   401
     total cpu time spent up to now is       33.1 secs

     Computing kpt #:    11  of   401
     total cpu time spent up to now is       36.3 secs

     Computing kpt #:    12  of   401
     total cpu time spent up to now is       39.2 secs

     Computing kpt #:    13  of   401
     total cpu time spent up to now is       42.3 secs

     Computing kpt #:    14  of   401
     total cpu time spent up to now is       45.5 secs

     Computing kpt #:    15  of   401
     total cpu time spent up to now is       48.8 secs

     Computing kpt #:    16  of   401
     total cpu time spent up to now is       52.1 secs

     Computing kpt #:    17  of   401
     total cpu time spent up to now is       55.2 secs

     Computing kpt #:    18  of   401
     total cpu time spent up to now is       58.1 secs

     Computing kpt #:    19  of   401
     total cpu time spent up to now is       61.4 secs

     Computing kpt #:    20  of   401
     total cpu time spent up to now is       64.6 secs

     Computing kpt #:    21  of   401
     total cpu time spent up to now is       68.0 secs

     Computing kpt #:    22  of   401
     total cpu time spent up to now is       71.2 secs

     Computing kpt #:    23  of   401
     total cpu time spent up to now is       74.6 secs

     Computing kpt #:    24  of   401
     total cpu time spent up to now is       78.1 secs

     Computing kpt #:    25  of   401
     total cpu time spent up to now is       81.5 secs

     Computing kpt #:    26  of   401
     total cpu time spent up to now is       84.8 secs

     Computing kpt #:    27  of   401
     total cpu time spent up to now is       88.2 secs

     Computing kpt #:    28  of   401
     total cpu time spent up to now is       91.6 secs

     Computing kpt #:    29  of   401
     total cpu time spent up to now is       95.3 secs

     Computing kpt #:    30  of   401
     total cpu time spent up to now is       98.7 secs

     Computing kpt #:    31  of   401
     total cpu time spent up to now is      102.1 secs

     Computing kpt #:    32  of   401
     total cpu time spent up to now is      105.2 secs

     Computing kpt #:    33  of   401
     total cpu time spent up to now is      108.6 secs

     Computing kpt #:    34  of   401
     total cpu time spent up to now is      111.9 secs

     Computing kpt #:    35  of   401
     total cpu time spent up to now is      115.1 secs

     Computing kpt #:    36  of   401
     total cpu time spent up to now is      118.3 secs

     Computing kpt #:    37  of   401
     total cpu time spent up to now is      121.4 secs

     Computing kpt #:    38  of   401
     total cpu time spent up to now is      124.5 secs

     Computing kpt #:    39  of   401
     total cpu time spent up to now is      127.5 secs

     Computing kpt #:    40  of   401
     total cpu time spent up to now is      130.3 secs

     Computing kpt #:    41  of   401
     total cpu time spent up to now is      133.2 secs

     Computing kpt #:    42  of   401
     total cpu time spent up to now is      136.0 secs

     Computing kpt #:    43  of   401
     total cpu time spent up to now is      138.7 secs

     Computing kpt #:    44  of   401
     total cpu time spent up to now is      141.5 secs

     Computing kpt #:    45  of   401
     total cpu time spent up to now is      144.4 secs

     Computing kpt #:    46  of   401
     total cpu time spent up to now is      147.2 secs

     Computing kpt #:    47  of   401
     total cpu time spent up to now is      149.9 secs

     Computing kpt #:    48  of   401
     total cpu time spent up to now is      152.7 secs

     Computing kpt #:    49  of   401
     total cpu time spent up to now is      155.6 secs

     Computing kpt #:    50  of   401
     total cpu time spent up to now is      158.5 secs

     Computing kpt #:    51  of   401
     total cpu time spent up to now is      161.3 secs

     Computing kpt #:    52  of   401
     total cpu time spent up to now is      164.1 secs

     Computing kpt #:    53  of   401
     total cpu time spent up to now is      167.0 secs

     Computing kpt #:    54  of   401
     total cpu time spent up to now is      169.7 secs

     Computing kpt #:    55  of   401
     total cpu time spent up to now is      172.7 secs

     Computing kpt #:    56  of   401
     total cpu time spent up to now is      175.5 secs

     Computing kpt #:    57  of   401
     total cpu time spent up to now is      178.2 secs

     Computing kpt #:    58  of   401
     total cpu time spent up to now is      181.2 secs

     Computing kpt #:    59  of   401
     total cpu time spent up to now is      183.8 secs

     Computing kpt #:    60  of   401
     total cpu time spent up to now is      186.8 secs

     Computing kpt #:    61  of   401
     total cpu time spent up to now is      189.7 secs

     Computing kpt #:    62  of   401
     total cpu time spent up to now is      192.6 secs

     Computing kpt #:    63  of   401
     total cpu time spent up to now is      195.7 secs

     Computing kpt #:    64  of   401
     total cpu time spent up to now is      198.9 secs

     Computing kpt #:    65  of   401
     total cpu time spent up to now is      202.1 secs

     Computing kpt #:    66  of   401
     total cpu time spent up to now is      205.2 secs

     Computing kpt #:    67  of   401
     total cpu time spent up to now is      208.3 secs

     Computing kpt #:    68  of   401
     total cpu time spent up to now is      211.5 secs

     Computing kpt #:    69  of   401
     total cpu time spent up to now is      214.6 secs

     Computing kpt #:    70  of   401
     total cpu time spent up to now is      217.6 secs

     Computing kpt #:    71  of   401
     total cpu time spent up to now is      220.9 secs

     Computing kpt #:    72  of   401
     total cpu time spent up to now is      224.1 secs

     Computing kpt #:    73  of   401
     total cpu time spent up to now is      227.4 secs

     Computing kpt #:    74  of   401
     total cpu time spent up to now is      230.6 secs

     Computing kpt #:    75  of   401
     total cpu time spent up to now is      233.8 secs

     Computing kpt #:    76  of   401
     total cpu time spent up to now is      237.0 secs

     Computing kpt #:    77  of   401
     total cpu time spent up to now is      240.2 secs

     Computing kpt #:    78  of   401
     total cpu time spent up to now is      243.5 secs

     Computing kpt #:    79  of   401
     total cpu time spent up to now is      246.7 secs

     Computing kpt #:    80  of   401
     total cpu time spent up to now is      250.0 secs

     Computing kpt #:    81  of   401
     total cpu time spent up to now is      253.2 secs

     Computing kpt #:    82  of   401
     total cpu time spent up to now is      256.5 secs

     Computing kpt #:    83  of   401
     total cpu time spent up to now is      259.9 secs

     Computing kpt #:    84  of   401
     total cpu time spent up to now is      263.5 secs

     Computing kpt #:    85  of   401
     total cpu time spent up to now is      267.3 secs

     Computing kpt #:    86  of   401
     total cpu time spent up to now is      270.7 secs

     Computing kpt #:    87  of   401
     total cpu time spent up to now is      274.4 secs

     Computing kpt #:    88  of   401
     total cpu time spent up to now is      278.1 secs

     Computing kpt #:    89  of   401
     total cpu time spent up to now is      281.7 secs

     Computing kpt #:    90  of   401
     total cpu time spent up to now is      285.2 secs

     Computing kpt #:    91  of   401
     total cpu time spent up to now is      288.5 secs

     Computing kpt #:    92  of   401
     total cpu time spent up to now is      291.8 secs

     Computing kpt #:    93  of   401
     total cpu time spent up to now is      294.9 secs

     Computing kpt #:    94  of   401
     total cpu time spent up to now is      298.0 secs

     Computing kpt #:    95  of   401
     total cpu time spent up to now is      301.0 secs

     Computing kpt #:    96  of   401
     total cpu time spent up to now is      303.8 secs

     Computing kpt #:    97  of   401
     total cpu time spent up to now is      306.5 secs

     Computing kpt #:    98  of   401
     total cpu time spent up to now is      309.1 secs

     Computing kpt #:    99  of   401
     total cpu time spent up to now is      311.6 secs

     Computing kpt #:   100  of   401
     total cpu time spent up to now is      314.0 secs

     Computing kpt #:   101  of   401
     total cpu time spent up to now is      316.5 secs

     Computing kpt #:   102  of   401
     total cpu time spent up to now is      318.8 secs

     Computing kpt #:   103  of   401
     total cpu time spent up to now is      321.2 secs

     Computing kpt #:   104  of   401
     total cpu time spent up to now is      323.6 secs

     Computing kpt #:   105  of   401
     total cpu time spent up to now is      325.9 secs

     Computing kpt #:   106  of   401
     total cpu time spent up to now is      328.2 secs

     Computing kpt #:   107  of   401
     total cpu time spent up to now is      330.7 secs

     Computing kpt #:   108  of   401
     total cpu time spent up to now is      333.0 secs

     Computing kpt #:   109  of   401
     total cpu time spent up to now is      335.4 secs

     Computing kpt #:   110  of   401
     total cpu time spent up to now is      337.7 secs

     Computing kpt #:   111  of   401
     total cpu time spent up to now is      340.1 secs

     Computing kpt #:   112  of   401
     total cpu time spent up to now is      342.5 secs

     Computing kpt #:   113  of   401
     total cpu time spent up to now is      344.8 secs

     Computing kpt #:   114  of   401
     total cpu time spent up to now is      347.4 secs

     Computing kpt #:   115  of   401
     total cpu time spent up to now is      349.8 secs

     Computing kpt #:   116  of   401
     total cpu time spent up to now is      352.2 secs

     Computing kpt #:   117  of   401
     total cpu time spent up to now is      354.6 secs

     Computing kpt #:   118  of   401
     total cpu time spent up to now is      357.1 secs

     Computing kpt #:   119  of   401
     total cpu time spent up to now is      359.3 secs

     Computing kpt #:   120  of   401
     total cpu time spent up to now is      361.8 secs

     Computing kpt #:   121  of   401
     total cpu time spent up to now is      364.0 secs

     Computing kpt #:   122  of   401
     total cpu time spent up to now is      366.5 secs

     Computing kpt #:   123  of   401
[...]

   -65.3328 -39.7558 -39.5258 -39.3510 -21.0339 -20.1769 -20.0271  -8.7143
    -7.7760  -7.0201  -6.8645  -6.4600  -5.6968  -5.3152  -4.5487  -4.4012
    -1.7903  -0.9713  -0.6595   1.6228

          k = 0.1500-0.1430-0.1607 (  8162 PWs)   bands (ev):

   -65.3331 -39.7564 -39.5170 -39.3474 -21.1149 -20.2082 -20.0540  -8.5665
    -7.6484  -6.9937  -6.7537  -6.3239  -5.5761  -5.3167  -4.6242  -4.4360
    -1.9696  -1.0019  -0.6089   1.5517

          k = 0.1250-0.1430-0.1339 (  8180 PWs)   bands (ev):

   -65.3334 -39.7569 -39.5092 -39.3443 -21.1862 -20.2425 -20.0709  -8.4187
    -7.5365  -7.0233  -6.6077  -6.1960  -5.5842  -5.2011  -4.6939  -4.4603
    -2.1545  -1.0079  -0.5285   1.4577

          k = 0.1000-0.1430-0.1071 (  8184 PWs)   bands (ev):

   -65.3336 -39.7573 -39.5025 -39.3415 -21.2465 -20.2749 -20.0815  -8.2728
    -7.4536  -7.0581  -6.4705  -6.0855  -5.6398  -5.0527  -4.7522  -4.4748
    -2.3356  -0.9922  -0.4250   1.3249

          k = 0.0750-0.1430-0.0803 (  8178 PWs)   bands (ev):

   -65.3338 -39.7576 -39.4970 -39.3393 -21.2945 -20.3025 -20.0882  -8.1317
    -7.4206  -7.0735  -6.3523  -5.9968  -5.7006  -4.9294  -4.7829  -4.4819
    -2.5016  -0.9609  -0.3059   1.1416

          k = 0.0500-0.1430-0.0536 (  8190 PWs)   bands (ev):

   -65.3339 -39.7579 -39.4931 -39.3377 -21.3294 -20.3231 -20.0925  -8.0005
    -7.4459  -7.0606  -6.2587  -5.9308  -5.7576  -4.8949  -4.7333  -4.4869
    -2.6389  -0.9241  -0.1817   0.9390

          k = 0.0250-0.1430-0.0268 (  8188 PWs)   bands (ev):

   -65.3340 -39.7580 -39.4906 -39.3368 -21.3506 -20.3359 -20.0948  -7.8923
    -7.5017  -7.0393  -6.1956  -5.8844  -5.8066  -4.9071  -4.6552  -4.4954
    -2.7314  -0.8942  -0.0733   0.7709

          k = 0.0000-0.1430 0.0000 (  8170 PWs)   bands (ev):

   -65.3340 -39.7581 -39.4898 -39.3364 -21.3577 -20.3402 -20.0956  -7.8436
    -7.5346  -7.0300  -6.1726  -5.8546  -5.8396  -4.9134  -4.6203  -4.5026
    -2.7643  -0.8826  -0.0252   0.7010

          k = 0.0250-0.1430 0.0000 (  8174 PWs)   bands (ev):

   -65.3340 -39.7581 -39.4898 -39.3368 -21.3571 -20.3362 -20.0950  -7.8437
    -7.5378  -7.0404  -6.1863  -5.8589  -5.8342  -4.9104  -4.6279  -4.5130
    -2.7447  -0.8940  -0.0249   0.7351

          k = 0.0500-0.1430 0.0000 (  8188 PWs)   bands (ev):

   -65.3340 -39.7580 -39.4898 -39.3379 -21.3553 -20.3244 -20.0932  -7.8439
    -7.5480  -7.0702  -6.2254  -5.8716  -5.8208  -4.9053  -4.6460  -4.5422
    -2.6879  -0.9229  -0.0243   0.8304

          k = 0.0750-0.1430 0.0000 (  8196 PWs)   bands (ev):

   -65.3340 -39.7580 -39.4897 -39.3397 -21.3525 -20.3053 -20.0900  -7.8444
    -7.5673  -7.1151  -6.2859  -5.8928  -5.8041  -4.9115  -4.6593  -4.5853
    -2.5991  -0.9578  -0.0233   0.9689

          k = 0.1000-0.1430 0.0000 (  8186 PWs)   bands (ev):

   -65.3339 -39.7579 -39.4896 -39.3421 -21.3487 -20.2798 -20.0845  -7.8449
    -7.5998  -7.1682  -6.3648  -5.9221  -5.7879  -4.9441  -4.6499  -4.6366
    -2.4848  -0.9871  -0.0218   1.1276

          k = 0.1250-0.1430 0.0000 (  8182 PWs)   bands (ev):

   -65.3339 -39.7578 -39.4895 -39.3452 -21.3441 -20.2496 -20.0756  -7.8457
    -7.6507  -7.2213  -6.4600  -5.9591  -5.7740  -5.0025  -4.6907  -4.6156
    -2.3516  -1.0031  -0.0199   1.2805

          k = 0.1500-0.1430 0.0000 (  8160 PWs)   bands (ev):

   -65.3338 -39.7577 -39.4894 -39.3488 -21.3391 -20.2177 -20.0609  -7.8467
    -7.7248  -7.2672  -6.5690  -6.0030  -5.7628  -5.0740  -4.7435  -4.5664
    -2.2051  -1.0015  -0.0175   1.4031

          k = 0.1750-0.1430 0.0000 (  8162 PWs)   bands (ev):

   -65.3337 -39.7575 -39.4892 -39.3527 -21.3337 -20.1885 -20.0367  -7.8479
    -7.8233  -7.3027  -6.6880  -6.0527  -5.7541  -5.1483  -4.7924  -4.5112
    -2.0502  -0.9811  -0.0146   1.4904

          k = 0.2000-0.1430 0.0000 (  8150 PWs)   bands (ev):

   -65.3337 -39.7574 -39.4890 -39.3571 -21.3282 -20.1659 -20.0000  -7.9436
    -7.8493  -7.3292  -6.8121  -6.1066  -5.7477  -5.2197  -4.8359  -4.4553
    -1.8911  -0.9421  -0.0112   1.5546

          k = 0.2250-0.1430 0.0000 (  8164 PWs)   bands (ev):

   -65.3336 -39.7572 -39.4889 -39.3616 -21.3227 -20.1507 -19.9514  -8.0808
    -7.8510  -7.3502  -6.9351  -6.1630  -5.7433  -5.2852  -4.8736  -4.4021
    -1.7314  -0.8862  -0.0072   1.6058

          k = 0.2500-0.1430 0.0000 (  8168 PWs)   bands (ev):

   -65.3335 -39.7570 -39.4887 -39.3662 -21.3174 -20.1407 -19.8942  -8.2302
    -7.8528  -7.3697  -7.0505  -6.2203  -5.7404  -5.3436  -4.9055  -4.3535
    -1.5743  -0.8158  -0.0025   1.6482

          k = 0.2750-0.1430 0.0000 (  8164 PWs)   bands (ev):

   -65.3334 -39.7569 -39.4885 -39.3709 -21.3124 -20.1340 -19.8321  -8.3866
    -7.8548  -7.3932  -7.1506  -6.2767  -5.7392  -5.3947  -4.9321  -4.3107
    -1.4228  -0.7337   0.0028   1.6830

          k = 0.3000-0.1430 0.0000 (  8178 PWs)   bands (ev):

   -65.3333 -39.7567 -39.4883 -39.3754 -21.3078 -20.1292 -19.7680  -8.5447
    -7.8569  -7.4279  -7.2268  -6.3306  -5.7394  -5.4385  -4.9539  -4.2739
    -1.2797  -0.6435   0.0090   1.7102

          k = 0.3250-0.1430 0.0000 (  8176 PWs)   bands (ev):

   -65.3333 -39.7566 -39.4882 -39.3797 -21.3036 -20.1256 -19.7045  -8.6993
    -7.8591  -7.4780  -7.2742  -6.3808  -5.7410  -5.4752  -4.9717  -4.2431
    -1.1476  -0.5487   0.0159   1.7298

          k = 0.3500-0.1430 0.0000 (  8156 PWs)   bands (ev):

   -65.3332 -39.7564 -39.4880 -39.3836 -21.2999 -20.1229 -19.6439  -8.8452
    -7.8613  -7.5365  -7.2996  -6.4261  -5.7440  -5.5052  -4.9860  -4.2179
    -1.0290  -0.4535   0.0235   1.7420

          k = 0.3750-0.1430 0.0000 (  8156 PWs)   bands (ev):

   -65.3331 -39.7563 -39.4879 -39.3871 -21.2967 -20.1208 -19.5884  -8.9775
    -7.8634  -7.5934  -7.3131  -6.4657  -5.7481  -5.5290  -4.9973  -4.1979
    -0.9259  -0.3619   0.0317   1.7478

          k = 0.4000-0.1430 0.0000 (  8158 PWs)   bands (ev):

   -65.3331 -39.7562 -39.4878 -39.3901 -21.2941 -20.1191 -19.5398  -9.0920
    -7.8652  -7.6428  -7.3208  -6.4989  -5.7527  -5.5469  -5.0059  -4.1825
    -0.8400  -0.2786   0.0400   1.7484

          k = 0.4250-0.1430 0.0000 (  8138 PWs)   bands (ev):

   -65.3330 -39.7561 -39.4877 -39.3925 -21.2920 -20.1179 -19.4999  -9.1849
    -7.8668  -7.6823  -7.3253  -6.5252  -5.7574  -5.5599  -5.0124  -4.1711
    -0.7725  -0.2077   0.0478   1.7456

          k = 0.4500-0.1430 0.0000 (  8126 PWs)   bands (ev):

   -65.3330 -39.7561 -39.4876 -39.3943 -21.2905 -20.1170 -19.4703  -9.2534
    -7.8680  -7.7110  -7.3279  -6.5442  -5.7613  -5.5685  -5.0168  -4.1634
    -0.7241  -0.1534   0.0542   1.7416

          k = 0.4750-0.1430 0.0000 (  8118 PWs)   bands (ev):

   -65.3330 -39.7560 -39.4876 -39.3954 -21.2896 -20.1165 -19.4521  -9.2954
    -7.8688  -7.7283  -7.3294  -6.5557  -5.7639  -5.5734  -5.0194  -4.1589
    -0.6950  -0.1193   0.0586   1.7382

          k = 0.5000-0.1430 0.0000 (  8120 PWs)   bands (ev):

   -65.3330 -39.7560 -39.4875 -39.3957 -21.2893 -20.1164 -19.4459  -9.3095
    -7.8691  -7.7341  -7.3298  -6.5596  -5.7648  -5.5750  -5.0202  -4.1574
    -0.6853  -0.1076   0.0601   1.7368

          k = 0.5000-0.1358 0.0000 (  8120 PWs)   bands (ev):

   -65.3330 -39.7560 -39.4875 -39.3957 -21.2893 -20.1164 -19.4459  -9.3095
    -7.8691  -7.7341  -7.3298  -6.5596  -5.7648  -5.5750  -5.0202  -4.1574
    -0.6853  -0.1076   0.0601   1.7368

          k = 0.5000-0.1287 0.0000 (  8112 PWs)   bands (ev):

   -65.3330 -39.7560 -39.4875 -39.3957 -21.2893 -20.1163 -19.4459  -9.3095
    -7.8691  -7.7341  -7.3298  -6.5596  -5.7648  -5.5750  -5.0202  -4.1574
    -0.6853  -0.1076   0.0601   1.7368

          k = 0.5000-0.1215 0.0000 (  8114 PWs)   bands (ev):

   -65.3330 -39.7560 -39.4875 -39.3957 -21.2893 -20.1163 -19.4459  -9.3095
    -7.8691  -7.7341  -7.3298  -6.5596  -5.7648  -5.5750  -5.0202  -4.1574
    -0.6853  -0.1076   0.0601   1.7368

          k = 0.5000-0.1144 0.0000 (  8120 PWs)   bands (ev):

   -65.3330 -39.7560 -39.4875 -39.3957 -21.2893 -20.1163 -19.4459  -9.3095
    -7.8691  -7.7341  -7.3298  -6.5596  -5.7648  -5.5750  -5.0202  -4.1574
    -0.6853  -0.1076   0.0601   1.7368

          k = 0.5000-0.1072 0.0000 (  8116 PWs)   bands (ev):

   -65.3330 -39.7560 -39.4875 -39.3957 -21.2893 -20.1163 -19.4459  -9.3095
    -7.8691  -7.7341  -7.3298  -6.5596  -5.7648  -5.5750  -5.0202  -4.1574
    -0.6853  -0.1076   0.0601   1.7368

          k = 0.5000-0.1001 0.0000 (  8124 PWs)   bands (ev):

   -65.3330 -39.7560 -39.4875 -39.3957 -21.2893 -20.1163 -19.4459  -9.3095
    -7.8691  -7.7341  -7.3298  -6.5596  -5.7648  -5.5750  -5.0202  -4.1574
    -0.6853  -0.1076   0.0601   1.7368

          k = 0.5000-0.0929 0.0000 (  8128 PWs)   bands (ev):

   -65.3330 -39.7560 -39.4875 -39.3957 -21.2893 -20.1164 -19.4459  -9.3095
    -7.8691  -7.7341  -7.3298  -6.5596  -5.7648  -5.5750  -5.0202  -4.1574
    -0.6853  -0.1076   0.0601   1.7367

          k = 0.5000-0.0858 0.0000 (  8138 PWs)   bands (ev):

   -65.3330 -39.7560 -39.4875 -39.3957 -21.2893 -20.1164 -19.4459  -9.3095
    -7.8691  -7.7341  -7.3298  -6.5596  -5.7648  -5.5750  -5.0202  -4.1574
    -0.6853  -0.1076   0.0601   1.7367

          k = 0.5000-0.0786 0.0000 (  8142 PWs)   bands (ev):

   -65.3330 -39.7560 -39.4875 -39.3957 -21.2893 -20.1164 -19.4459  -9.3095
    -7.8691  -7.7341  -7.3298  -6.5596  -5.7648  -5.5750  -5.0202  -4.1574
    -0.6853  -0.1076   0.0601   1.7367

          k = 0.5000-0.0715 0.0000 (  8132 PWs)   bands (ev):

   -65.3330 -39.7560 -39.4875 -39.3957 -21.2893 -20.1164 -19.4459  -9.3095
    -7.8691  -7.7341  -7.3298  -6.5596  -5.7648  -5.5750  -5.0202  -4.1574
    -0.6853  -0.1076   0.0601   1.7367

          k = 0.5000-0.0643 0.0000 (  8128 PWs)   bands (ev):

   -65.3330 -39.7560 -39.4875 -39.3957 -21.2893 -20.1164 -19.4459  -9.3095
    -7.8691  -7.7341  -7.3298  -6.5596  -5.7648  -5.5750  -5.0202  -4.1574
    -0.6853  -0.1076   0.0601   1.7366

          k = 0.5000-0.0572 0.0000 (  8132 PWs)   bands (ev):

   -65.3330 -39.7560 -39.4875 -39.3957 -21.2893 -20.1164 -19.4459  -9.3095
    -7.8691  -7.7341  -7.3298  -6.5596  -5.7648  -5.5750  -5.0202  -4.1574
    -0.6853  -0.1076   0.0601   1.7366

          k = 0.5000-0.0500 0.0000 (  8130 PWs)   bands (ev):

   -65.3330 -39.7560 -39.4875 -39.3957 -21.2893 -20.1163 -19.4459  -9.3095
    -7.8691  -7.7341  -7.3298  -6.5596  -5.7648  -5.5750  -5.0202  -4.1574
    -0.6853  -0.1076   0.0601   1.7366

          k = 0.5000-0.0429 0.0000 (  8138 PWs)   bands (ev):

   -65.3330 -39.7560 -39.4875 -39.3957 -21.2893 -20.1163 -19.4459  -9.3095
    -7.8691  -7.7341  -7.3298  -6.5596  -5.7648  -5.5750  -5.0202  -4.1574
    -0.6853  -0.1076   0.0601   1.7365

          k = 0.5000-0.0357 0.0000 (  8148 PWs)   bands (ev):

   -65.3330 -39.7560 -39.4875 -39.3957 -21.2893 -20.1163 -19.4459  -9.3095
    -7.8691  -7.7341  -7.3298  -6.5596  -5.7648  -5.5750  -5.0202  -4.1574
    -0.6853  -0.1076   0.0601   1.7365

          k = 0.5000-0.0286 0.0000 (  8144 PWs)   bands (ev):

   -65.3330 -39.7560 -39.4875 -39.3957 -21.2893 -20.1163 -19.4459  -9.3095
    -7.8691  -7.7341  -7.3298  -6.5596  -5.7648  -5.5750  -5.0202  -4.1574
    -0.6853  -0.1076   0.0601   1.7365

          k = 0.5000-0.0214 0.0000 (  8138 PWs)   bands (ev):

   -65.3330 -39.7560 -39.4875 -39.3957 -21.2893 -20.1163 -19.4459  -9.3095
    -7.8691  -7.7341  -7.3298  -6.5596  -5.7648  -5.5750  -5.0202  -4.1574
    -0.6853  -0.1076   0.0601   1.7365

          k = 0.5000-0.0143 0.0000 (  8134 PWs)   bands (ev):

   -65.3330 -39.7560 -39.4875 -39.3957 -21.2893 -20.1163 -19.4459  -9.3095
    -7.8691  -7.7341  -7.3298  -6.5596  -5.7648  -5.5750  -5.0202  -4.1574
    -0.6853  -0.1076   0.0601   1.7365

          k = 0.5000-0.0071 0.0000 (  8134 PWs)   bands (ev):

   -65.3330 -39.7560 -39.4875 -39.3957 -21.2893 -20.1163 -19.4459  -9.3095
    -7.8691  -7.7341  -7.3298  -6.5596  -5.7648  -5.5750  -5.0202  -4.1574
    -0.6853  -0.1076   0.0601   1.7365

          k = 0.5000 0.0000 0.0000 (  8140 PWs)   bands (ev):

   -65.3330 -39.7560 -39.4875 -39.3957 -21.2893 -20.1164 -19.4459  -9.3095
    -7.8691  -7.7341  -7.3298  -6.5596  -5.7648  -5.5750  -5.0202  -4.1574
    -0.6853  -0.1076   0.0601   1.7365

          k = 0.4750 0.0000 0.0000 (  8136 PWs)   bands (ev):

   -65.3330 -39.7560 -39.4876 -39.3954 -21.2896 -20.1165 -19.4521  -9.2954
    -7.8688  -7.7283  -7.3294  -6.5557  -5.7639  -5.5734  -5.0194  -4.1589
    -0.6950  -0.1193   0.0586   1.7378

          k = 0.4500 0.0000 0.0000 (  8130 PWs)   bands (ev):

   -65.3330 -39.7561 -39.4876 -39.3943 -21.2905 -20.1170 -19.4703  -9.2534
    -7.8680  -7.7110  -7.3279  -6.5442  -5.7613  -5.5685  -5.0168  -4.1634
    -0.7241  -0.1534   0.0542   1.7411

          k = 0.4250 0.0000 0.0000 (  8145 PWs)   bands (ev):

   -65.3330 -39.7561 -39.4877 -39.3925 -21.2920 -20.1179 -19.4999  -9.1849
    -7.8668  -7.6823  -7.3253  -6.5252  -5.7574  -5.5599  -5.0124  -4.1711
    -0.7725  -0.2077   0.0478   1.7450

          k = 0.4000 0.0000 0.0000 (  8143 PWs)   bands (ev):

   -65.3331 -39.7562 -39.4878 -39.3901 -21.2941 -20.1191 -19.5398  -9.0920
    -7.8652  -7.6428  -7.3208  -6.4989  -5.7527  -5.5469  -5.0059  -4.1825
    -0.8400  -0.2785   0.0400   1.7475

          k = 0.3750 0.0000 0.0000 (  8149 PWs)   bands (ev):

   -65.3331 -39.7563 -39.4879 -39.3871 -21.2967 -20.1207 -19.5884  -8.9775
    -7.8634  -7.5934  -7.3131  -6.4657  -5.7481  -5.5290  -4.9973  -4.1979
    -0.9259  -0.3619   0.0317   1.7466

          k = 0.3500 0.0000 0.0000 (  8161 PWs)   bands (ev):

   -65.3332 -39.7564 -39.4880 -39.3836 -21.2999 -20.1229 -19.6439  -8.8452
    -7.8613  -7.5365  -7.2996  -6.4261  -5.7440  -5.5052  -4.9860  -4.2179
    -1.0290  -0.4535   0.0235   1.7405

          k = 0.3250 0.0000 0.0000 (  8173 PWs)   bands (ev):

   -65.3333 -39.7566 -39.4882 -39.3797 -21.3036 -20.1256 -19.7045  -8.6993
    -7.8591  -7.4780  -7.2742  -6.3808  -5.7410  -5.4752  -4.9717  -4.2431
    -1.1476  -0.5487   0.0159   1.7277

          k = 0.3000 0.0000 0.0000 (  8177 PWs)   bands (ev):

   -65.3333 -39.7567 -39.4883 -39.3754 -21.3078 -20.1292 -19.7680  -8.5447
    -7.8569  -7.4279  -7.2268  -6.3306  -5.7394  -5.4385  -4.9539  -4.2739
    -1.2797  -0.6435   0.0090   1.7075

          k = 0.2750 0.0000 0.0000 (  8185 PWs)   bands (ev):

   -65.3334 -39.7569 -39.4885 -39.3709 -21.3124 -20.1340 -19.8321  -8.3866
    -7.8548  -7.3932  -7.1506  -6.2767  -5.7392  -5.3947  -4.9321  -4.3107
    -1.4228  -0.7337   0.0028   1.6797

          k = 0.2500 0.0000 0.0000 (  8179 PWs)   bands (ev):

   -65.3335 -39.7570 -39.4887 -39.3662 -21.3174 -20.1407 -19.8942  -8.2302
    -7.8528  -7.3697  -7.0505  -6.2203  -5.7404  -5.3436  -4.9055  -4.3535
    -1.5743  -0.8158  -0.0025   1.6443

          k = 0.2250 0.0000 0.0000 (  8201 PWs)   bands (ev):

   -65.3336 -39.7572 -39.4889 -39.3616 -21.3227 -20.1507 -19.9514  -8.0808
    -7.8510  -7.3502  -6.9351  -6.1630  -5.7433  -5.2852  -4.8736  -4.4021
    -1.7314  -0.8862  -0.0072   1.6013

          k = 0.2000 0.0000 0.0000 (  8191 PWs)   bands (ev):

   -65.3337 -39.7574 -39.4890 -39.3571 -21.3282 -20.1659 -20.0000  -7.9436
    -7.8493  -7.3292  -6.8121  -6.1066  -5.7477  -5.2197  -4.8359  -4.4553
    -1.8911  -0.9421  -0.0112   1.5498

          k = 0.1750 0.0000 0.0000 (  8177 PWs)   bands (ev):

   -65.3337 -39.7575 -39.4892 -39.3527 -21.3337 -20.1885 -20.0367  -7.8479
    -7.8233  -7.3027  -6.6880  -6.0527  -5.7541  -5.1483  -4.7924  -4.5112
    -2.0502  -0.9811  -0.0147   1.4858

          k = 0.1500 0.0000 0.0000 (  8179 PWs)   bands (ev):

   -65.3338 -39.7577 -39.4894 -39.3488 -21.3391 -20.2177 -20.0609  -7.8467
    -7.7248  -7.2672  -6.5690  -6.0030  -5.7628  -5.0740  -4.7435  -4.5664
    -2.2051  -1.0015  -0.0175   1.3995

          k = 0.1250 0.0000 0.0000 (  8185 PWs)   bands (ev):

   -65.3339 -39.7578 -39.4895 -39.3452 -21.3441 -20.2496 -20.0756  -7.8457
    -7.6507  -7.2213  -6.4600  -5.9591  -5.7740  -5.0025  -4.6907  -4.6156
    -2.3516  -1.0031  -0.0199   1.2783

          k = 0.1000 0.0000 0.0000 (  8187 PWs)   bands (ev):

   -65.3339 -39.7579 -39.4896 -39.3421 -21.3487 -20.2798 -20.0845  -7.8449
    -7.5998  -7.1682  -6.3648  -5.9221  -5.7879  -4.9441  -4.6499  -4.6366
    -2.4848  -0.9871  -0.0218   1.1266

          k = 0.0750 0.0000 0.0000 (  8211 PWs)   bands (ev):

   -65.3340 -39.7580 -39.4897 -39.3397 -21.3525 -20.3053 -20.0900  -7.8444
    -7.5673  -7.1151  -6.2859  -5.8928  -5.8041  -4.9115  -4.6593  -4.5853
    -2.5991  -0.9578  -0.0233   0.9684

          k = 0.0500 0.0000 0.0000 (  8225 PWs)   bands (ev):

   -65.3340 -39.7580 -39.4898 -39.3379 -21.3554 -20.3245 -20.0933  -7.8439
    -7.5480  -7.0702  -6.2254  -5.8716  -5.8208  -4.9053  -4.6460  -4.5422
    -2.6879  -0.9229  -0.0243   0.8301

          k = 0.0250 0.0000 0.0000 (  8211 PWs)   bands (ev):

   -65.3340 -39.7581 -39.4898 -39.3368 -21.3571 -20.3362 -20.0950  -7.8437
    -7.5378  -7.0404  -6.1863  -5.8589  -5.8342  -4.9104  -4.6279  -4.5130
    -2.7447  -0.8940  -0.0250   0.7349

          k = 0.0000 0.0000 0.0000 (  8201 PWs)   bands (ev):

   -65.3340 -39.7581 -39.4898 -39.3364 -21.3578 -20.3402 -20.0956  -7.8436
    -7.5346  -7.0300  -6.1726  -5.8546  -5.8396  -4.9134  -4.6203  -4.5026
    -2.7643  -0.8826  -0.0252   0.7008

     Writing all to output data dir ./out/aiida.save/ :
     XML data file, pseudopotentials, collected wavefunctions

     init_run     :      1.62s CPU      1.65s WALL (       1 calls)
     electrons    :   3823.20s CPU   1254.03s WALL (       1 calls)

     Called by init_run:
     wfcinit      :      0.00s CPU      0.00s WALL (       1 calls)
     wfcinit:atom :      3.27s CPU      1.29s WALL (     401 calls)
     wfcinit:wfcr :    104.76s CPU     38.35s WALL (     401 calls)
     potinit      :      0.53s CPU      0.55s WALL (       1 calls)
     hinit0       :      0.69s CPU      0.70s WALL (       1 calls)

     Called by electrons:
     c_bands      :   3823.17s CPU   1254.02s WALL (       1 calls)
     v_of_rho     :      0.11s CPU      0.12s WALL (       1 calls)
     v_h          :      0.01s CPU      0.01s WALL (       1 calls)
     v_xc         :      0.10s CPU      0.11s WALL (       1 calls)
     newd         :      0.14s CPU      0.13s WALL (       1 calls)
     PAW_pot      :      0.05s CPU      0.05s WALL (       1 calls)

     Called by c_bands:
     init_us_2    :      4.91s CPU      1.89s WALL (     401 calls)
     cegterg      :   3678.94s CPU   1200.65s WALL (    1164 calls)

     Called by sum_band:

     Called by *egterg:
     cdiaghg      :     49.72s CPU     17.72s WALL (   20690 calls)
     cegterg:over :    175.02s CPU     25.00s WALL (   20289 calls)
     cegterg:upda :    101.05s CPU     16.44s WALL (   20289 calls)
     cegterg:last :    281.55s CPU     31.02s WALL (   13716 calls)
     h_psi        :   2998.30s CPU   1112.66s WALL (   21854 calls)
     s_psi        :     61.22s CPU      8.43s WALL (   21854 calls)
     g_psi        :     42.04s CPU     11.38s WALL (   20289 calls)

     Called by h_psi:
     h_psi:calbec :     90.80s CPU     21.05s WALL (   21854 calls)
     vloc_psi     :   2794.68s CPU   1074.68s WALL (   21854 calls)
     add_vuspsi   :     97.15s CPU     12.29s WALL (   21854 calls)

     General routines
     calbec       :     90.54s CPU     20.98s WALL (   21854 calls)
     fft          :      0.53s CPU      0.53s WALL (      13 calls)
     ffts         :      0.36s CPU      0.36s WALL (       1 calls)
     fftw         :   2235.29s CPU    875.13s WALL (  519156 calls)
     interpolate  :      0.37s CPU      0.37s WALL (       1 calls)
     davcio       :      1.95s CPU      0.69s WALL (     802 calls)

     Parallel routines

     PAW routines
     PAW_pot      :      0.05s CPU      0.05s WALL (       1 calls)

     PWSCF        :      1h 3m CPU  20m56.55s WALL


   This run was terminated on:  11:44:46  14Dec2024            

=------------------------------------------------------------------------------=
   JOB DONE.
=------------------------------------------------------------------------------=
