
     Program DOS v.7.3.1 starts on 14Dec2024 at 11: 1:19 

     This program is part of the open-source Quantum ESPRESSO suite
     for quantum simulation of materials; please cite
         "P. Giannozzi et al., J. Phys.:Condens. Matter 21 395502 (2009);
         "P. Giannozzi et al., J. Phys.:Condens. Matter 29 465901 (2017);
         "P. Giannozzi et al., J. Chem. Phys. 152 154105 (2020);
          URL http://www.quantum-espresso.org", 
     in publications or presentations arising from this work. More details at
     http://www.quantum-espresso.org/quote

     Parallel version (MPI), running on     1 processors

     MPI processes distributed on     1 nodes
     24567 MiB available memory on the printing compute node when the environment starts


     Reading xml data from directory:

     ./out/aiida.save/
     file O.pbesol-n-kjpaw_psl.0.1.UPF: wavefunction(s)  2P renormalized

     IMPORTANT: XC functional enforced from input :
     Exchange-correlation= PBESOL
                           (   1   4  10   8   0   0   0)
     Any further DFT definition will be discarded
     Please, verify this is what you really want


     G-vector sticks info
     --------------------
     sticks:   dense  smooth     PW     G-vecs:    dense   smooth      PW
     Sum        6233    3105    921               185117    65363   10477

     Using Slab Decomposition


     Check: negative core charge=   -0.000001

     negative rho (up, down):  8.320E-05 0.000E+00

     Gaussian broadening (read from file): ngauss,degauss=  -1    0.020000


     DOS          :      1.38s CPU      1.29s WALL


   This run was terminated on:  11: 1:20  14Dec2024            

=------------------------------------------------------------------------------=
   JOB DONE.
=------------------------------------------------------------------------------=
