
     Program PWSCF v.7.3.1 starts on 14Dec2024 at 10:11: 9 

     This program is part of the open-source Quantum ESPRESSO suite
     for quantum simulation of materials; please cite
         "P. Giannozzi et al., J. Phys.:Condens. Matter 21 395502 (2009);
         "P. Giannozzi et al., J. Phys.:Condens. Matter 29 465901 (2017);
         "P. Giannozzi et al., J. Chem. Phys. 152 154105 (2020);
          URL http://www.quantum-espresso.org", 
     in publications or presentations arising from this work. More details at
     http://www.quantum-espresso.org/quote

     Parallel version (MPI), running on     1 processors

     MPI processes distributed on     1 nodes
     26396 MiB available memory on the printing compute node when the environment starts

     Waiting for input...
     Reading input from standard input

     Current dimensions of program PWSCF are:
     Max number of different atomic species (ntypx) = 10
     Max number of k-points (npk) =  40000
     Max angular momentum in pseudopotentials (lmaxx) =  4

     File ./out/aiida.update deleted, as requested

     File ./out/aiida.bfgs deleted, as requested
     file O.pbesol-n-kjpaw_psl.0.1.UPF: wavefunction(s)  2P renormalized
     Message from routine setup:
     using ibrav=0 with symmetry is DISCOURAGED, use correct ibrav instead

     Subspace diagonalization in iterative solution of the eigenvalue problem:
     a serial algorithm will be used


     G-vector sticks info
     --------------------
     sticks:   dense  smooth     PW     G-vecs:    dense   smooth      PW
     Sum        4685    3105    927               120271    65363   10603

     Using Slab Decomposition



     bravais-lattice index     =            0
     lattice parameter (alat)  =       7.4873  a.u.
     unit-cell volume          =    1370.1431 (a.u.)^3
     number of atoms/cell      =            4
     number of atomic types    =            2
     number of electrons       =        32.00
     number of Kohn-Sham states=           20
     kinetic-energy cutoff     =      50.0000  Ry
     charge density cutoff     =     300.0000  Ry
     scf convergence threshold =      1.0E-08
     mixing beta               =       0.3000
     number of iterations used =            8  plain     mixing
     energy convergence thresh.=      4.0E-05
     force convergence thresh. =      1.0E-04
     Exchange-correlation= SLA  PW   PSX  PSC
                           (   1   4  10   8   0   0   0)
     nstep                     =           50


     celldm(1)=   7.487284  celldm(2)=   0.000000  celldm(3)=   0.000000
     celldm(4)=   0.000000  celldm(5)=   0.000000  celldm(6)=   0.000000

     crystal axes: (cart. coord. in units of alat)
               a(1) = (   1.000000   0.000000   0.000000 )  
               a(2) = (   0.000000   3.496883   0.000000 )  
               a(3) = (   0.000000   0.000000   0.933495 )  

     reciprocal axes: (cart. coord. in units 2 pi/alat)
               b(1) = (  1.000000  0.000000  0.000000 )  
               b(2) = (  0.000000  0.285969  0.000000 )  
               b(3) = (  0.000000  0.000000  1.071243 )  


     PseudoPot. # 1 for Mo read from file:
     ./Mo_ONCV_PBEsol-1.0.upf
     MD5 check sum: 5193ba6a20874d27c2ef80314d1b3445
     Pseudo is Norm-conserving, Zval = 14.0
     Generated using ONCVPSP code by D. R. Hamann
     Using radial grid of 1508 points,  6 beta functions with: 
                l(1) =   0
                l(2) =   0
                l(3) =   1
                l(4) =   1
                l(5) =   2
                l(6) =   2

     PseudoPot. # 2 for O  read from file:
     ./O.pbesol-n-kjpaw_psl.0.1.UPF
     MD5 check sum: f1fabb93b5f951fba6cb430882e2825c
     Pseudo is Projector augmented-wave + core cor, Zval =  6.0
     Generated using &quot;atomic&quot; code by A. Dal Corso  v.6.3
     Shape of augmentation charge: BESSEL
     Using radial grid of 1095 points,  4 beta functions with: 
                l(1) =   0
                l(2) =   0
                l(3) =   1
                l(4) =   1
     Q(r) pseudized with 0 coefficients 


     atomic species   valence    mass     pseudopotential
     Mo               14.00    95.96000     Mo( 1.00)
     O                 6.00    15.99940     O ( 1.00)

      2 Sym. Ops. (no inversion) found ( 1 have fractional translation)


                                    s                        frac. trans.

      isym =  1     identity                                     

 cryst.   s( 1) = (     1          0          0      )
                  (     0          1          0      )
                  (     0          0          1      )

 cart.    s( 1) = (  1.0000000  0.0000000  0.0000000 )
                  (  0.0000000  1.0000000  0.0000000 )
                  (  0.0000000  0.0000000  1.0000000 )


      isym =  2     inv. 180 deg rotation - cart. axis [0,0,1]   

 cryst.   s( 2) = (     1          0          0      )    f =(  0.0000000 )
                  (     0          1          0      )       (  0.0000000 )
                  (     0          0         -1      )       (  0.5000000 )

 cart.    s( 2) = (  1.0000000  0.0000000  0.0000000 )    f =(  0.0000000 )
                  (  0.0000000  1.0000000  0.0000000 )       (  0.0000000 )
                  (  0.0000000  0.0000000 -1.0000000 )       (  0.4667474 )


   Cartesian axes

     site n.     atom                  positions (alat units)
         1        Mo     tau(   1) = (   0.5750000   1.3917594   0.7001211  )
         2        O      tau(   2) = (   0.5260000   1.4896721   0.2333737  )
         3        O      tau(   3) = (   0.0660000   1.4477095   0.7001211  )
         4        O      tau(   4) = (   0.5100000   0.9651397   0.7001211  )

   Crystallographic axes

     site n.     atom                  positions (cryst. coord.)
         1        Mo     tau(   1) = (  0.5750000  0.3980000  0.7500000  )
         2        O      tau(   2) = (  0.5260000  0.4260000  0.2500000  )
         3        O      tau(   3) = (  0.0660000  0.4140000  0.7500000  )
         4        O      tau(   4) = (  0.5100000  0.2760000  0.7500000  )

     number of k points=    32  Marzari-Vanderbilt smearing, width (Ry)=  0.0200
                       cart. coord. in units 2pi/alat
        k(    1) = (   0.0000000   0.0000000   0.0000000), wk =   0.0277778
        k(    2) = (   0.0000000   0.0000000   0.1785405), wk =   0.0555556
        k(    3) = (   0.0000000   0.0000000   0.3570811), wk =   0.0555556
        k(    4) = (   0.0000000   0.0000000  -0.5356216), wk =   0.0277778
        k(    5) = (   0.0000000  -0.1429845   0.0000000), wk =   0.0277778
        k(    6) = (   0.0000000  -0.1429845   0.1785405), wk =   0.0555556
        k(    7) = (   0.0000000  -0.1429845   0.3570811), wk =   0.0555556
        k(    8) = (   0.0000000  -0.1429845  -0.5356216), wk =   0.0277778
        k(    9) = (   0.1666667   0.0000000   0.0000000), wk =   0.0555556
        k(   10) = (   0.1666667   0.0000000   0.1785405), wk =   0.1111111
        k(   11) = (   0.1666667   0.0000000   0.3570811), wk =   0.1111111
        k(   12) = (   0.1666667   0.0000000  -0.5356216), wk =   0.0555556
        k(   13) = (   0.1666667  -0.1429845   0.0000000), wk =   0.0555556
        k(   14) = (   0.1666667  -0.1429845   0.1785405), wk =   0.1111111
        k(   15) = (   0.1666667  -0.1429845   0.3570811), wk =   0.1111111
        k(   16) = (   0.1666667  -0.1429845  -0.5356216), wk =   0.0555556
        k(   17) = (   0.3333333   0.0000000   0.0000000), wk =   0.0555556
        k(   18) = (   0.3333333   0.0000000   0.1785405), wk =   0.1111111
        k(   19) = (   0.3333333   0.0000000   0.3570811), wk =   0.1111111
        k(   20) = (   0.3333333   0.0000000  -0.5356216), wk =   0.0555556
        k(   21) = (   0.3333333  -0.1429845   0.0000000), wk =   0.0555556
        k(   22) = (   0.3333333  -0.1429845   0.1785405), wk =   0.1111111
        k(   23) = (   0.3333333  -0.1429845   0.3570811), wk =   0.1111111
        k(   24) = (   0.3333333  -0.1429845  -0.5356216), wk =   0.0555556
        k(   25) = (  -0.5000000   0.0000000   0.0000000), wk =   0.0277778
        k(   26) = (  -0.5000000   0.0000000   0.1785405), wk =   0.0555556
        k(   27) = (  -0.5000000   0.0000000   0.3570811), wk =   0.0555556
        k(   28) = (  -0.5000000   0.0000000  -0.5356216), wk =   0.0277778
        k(   29) = (  -0.5000000  -0.1429845   0.0000000), wk =   0.0277778
        k(   30) = (  -0.5000000  -0.1429845   0.1785405), wk =   0.0555556
        k(   31) = (  -0.5000000  -0.1429845   0.3570811), wk =   0.0555556
        k(   32) = (  -0.5000000  -0.1429845  -0.5356216), wk =   0.0277778

                       cryst. coord.
        k(    1) = (   0.0000000   0.0000000   0.0000000), wk =   0.0277778
        k(    2) = (   0.0000000   0.0000000   0.1666667), wk =   0.0555556
        k(    3) = (   0.0000000   0.0000000   0.3333333), wk =   0.0555556
        k(    4) = (   0.0000000   0.0000000  -0.5000000), wk =   0.0277778
        k(    5) = (   0.0000000  -0.5000000   0.0000000), wk =   0.0277778
        k(    6) = (   0.0000000  -0.5000000   0.1666667), wk =   0.0555556
        k(    7) = (   0.0000000  -0.5000000   0.3333333), wk =   0.0555556
        k(    8) = (   0.0000000  -0.5000000  -0.5000000), wk =   0.0277778
        k(    9) = (   0.1666667   0.0000000   0.0000000), wk =   0.0555556
        k(   10) = (   0.1666667   0.0000000   0.1666667), wk =   0.1111111
        k(   11) = (   0.1666667   0.0000000   0.3333333), wk =   0.1111111
        k(   12) = (   0.1666667   0.0000000  -0.5000000), wk =   0.0555556
        k(   13) = (   0.1666667  -0.5000000   0.0000000), wk =   0.0555556
        k(   14) = (   0.1666667  -0.5000000   0.1666667), wk =   0.1111111
        k(   15) = (   0.1666667  -0.5000000   0.3333333), wk =   0.1111111
        k(   16) = (   0.1666667  -0.5000000  -0.5000000), wk =   0.0555556
        k(   17) = (   0.3333333   0.0000000   0.0000000), wk =   0.0555556
        k(   18) = (   0.3333333   0.0000000   0.1666667), wk =   0.1111111
        k(   19) = (   0.3333333   0.0000000   0.3333333), wk =   0.1111111
        k(   20) = (   0.3333333   0.0000000  -0.5000000), wk =   0.0555556
        k(   21) = (   0.3333333  -0.5000000   0.0000000), wk =   0.0555556
        k(   22) = (   0.3333333  -0.5000000   0.1666667), wk =   0.1111111
        k(   23) = (   0.3333333  -0.5000000   0.3333333), wk =   0.1111111
        k(   24) = (   0.3333333  -0.5000000  -0.5000000), wk =   0.0555556
        k(   25) = (  -0.5000000   0.0000000   0.0000000), wk =   0.0277778
        k(   26) = (  -0.5000000   0.0000000   0.1666667), wk =   0.0555556
        k(   27) = (  -0.5000000   0.0000000   0.3333333), wk =   0.0555556
        k(   28) = (  -0.5000000   0.0000000  -0.5000000), wk =   0.0277778
        k(   29) = (  -0.5000000  -0.5000000   0.0000000), wk =   0.0277778
        k(   30) = (  -0.5000000  -0.5000000   0.1666667), wk =   0.0555556
        k(   31) = (  -0.5000000  -0.5000000   0.3333333), wk =   0.0555556
        k(   32) = (  -0.5000000  -0.5000000  -0.5000000), wk =   0.0277778

     Dense  grid:   120271 G-vectors     FFT dimensions: (  45, 150,  40)

     Smooth grid:    65363 G-vectors     FFT dimensions: (  36, 120,  32)

     Dynamical RAM for                 wfc:       2.50 MB

     Dynamical RAM for     wfc (w. buffer):      82.38 MB

     Dynamical RAM for           str. fact:       3.67 MB

     Dynamical RAM for           local pot:       0.00 MB

     Dynamical RAM for          nlocal pot:       5.24 MB

     Dynamical RAM for                qrad:       2.78 MB

     Dynamical RAM for          rho,v,vnew:      11.69 MB

     Dynamical RAM for               rhoin:       3.90 MB

     Dynamical RAM for            rho*nmix:      29.36 MB

     Dynamical RAM for           G-vectors:       7.38 MB

     Dynamical RAM for          h,s,v(r/c):       0.07 MB

     Dynamical RAM for          <psi|beta>:       0.01 MB

     Dynamical RAM for                 psi:       4.99 MB

     Dynamical RAM for                hpsi:       4.99 MB

     Dynamical RAM for                spsi:       4.99 MB

     Dynamical RAM for      wfcinit/wfcrot:       5.50 MB

     Dynamical RAM for           addusdens:      99.10 MB

     Dynamical RAM for          addusforce:     107.36 MB

     Dynamical RAM for         addusstress:     121.12 MB

     Estimated static dynamical RAM per process >     132.84 MB

     Estimated max dynamical RAM per process >     283.33 MB

     Check: negative core charge=   -0.000001

     Initial potential from superposition of free atoms

     starting charge      31.9991, renormalised to      32.0000

     negative rho (up, down):  1.416E-04 0.000E+00
     Starting wfcs are   22 randomized atomic wfcs
     Checking if some PAW data can be deallocated... 

     total cpu time spent up to now is        4.8 secs

     Self-consistent Calculation

     iteration #  1     ecut=    50.00 Ry     beta= 0.30
     Davidson diagonalization with overlap

---- Real-time Memory Report at c_bands before calling an iterative solver
           179 MiB given to the printing process from OS
             0 MiB allocation reported by mallinfo(arena+hblkhd)
         26163 MiB available memory on the node where the printing process lives
------------------
     ethr =  1.00E-02,  avg # of iterations =  2.5

     negative rho (up, down):  1.258E-04 0.000E+00

     total cpu time spent up to now is       13.1 secs

     total energy              =    -260.18164129 Ry
     estimated scf accuracy    <       2.03172517 Ry

     iteration #  2     ecut=    50.00 Ry     beta= 0.30
     Davidson diagonalization with overlap

---- Real-time Memory Report at c_bands before calling an iterative solver
           287 MiB given to the printing process from OS
             0 MiB allocation reported by mallinfo(arena+hblkhd)
         26085 MiB available memory on the node where the printing process lives
------------------
     ethr =  6.35E-03,  avg # of iterations =  2.0

     negative rho (up, down):  1.124E-04 0.000E+00

     total cpu time spent up to now is       20.8 secs

     total energy              =    -260.40076420 Ry
     estimated scf accuracy    <       1.61866855 Ry

     iteration #  3     ecut=    50.00 Ry     beta= 0.30
     Davidson diagonalization with overlap

---- Real-time Memory Report at c_bands before calling an iterative solver
           290 MiB given to the printing process from OS
             0 MiB allocation reported by mallinfo(arena+hblkhd)
         26117 MiB available memory on the node where the printing process lives
------------------
     ethr =  5.06E-03,  avg # of iterations =  1.0

     negative rho (up, down):  1.077E-04 0.000E+00

     total cpu time spent up to now is       27.5 secs

     total energy              =    -260.68222604 Ry
     estimated scf accuracy    <       0.33766515 Ry

     iteration #  4     ecut=    50.00 Ry     beta= 0.30
     Davidson diagonalization with overlap

---- Real-time Memory Report at c_bands before calling an iterative solver
           292 MiB given to the printing process from OS
             0 MiB allocation reported by mallinfo(arena+hblkhd)
         26097 MiB available memory on the node where the printing process lives
------------------
     ethr =  1.06E-03,  avg # of iterations =  1.0

     negative rho (up, down):  1.158E-04 0.000E+00

     total cpu time spent up to now is       34.2 secs

     WARNING: integrated charge=    32.00494895, expected=    32.00000000

     total energy              =    -260.69748855 Ry
     estimated scf accuracy    <       0.04205222 Ry

     iteration #  5     ecut=    50.00 Ry     beta= 0.30
     Davidson diagonalization with overlap

---- Real-time Memory Report at c_bands before calling an iterative solver
           294 MiB given to the printing process from OS
             0 MiB allocation reported by mallinfo(arena+hblkhd)
         26127 MiB available memory on the node where the printing process lives
------------------
     ethr =  1.31E-04,  avg # of iterations =  4.4
     Minimization algorithm failed to find Fermi energy: reverting to bisection
     Possible cause: smearing is larger than the electronic band-gap.

     negative rho (up, down):  1.210E-04 0.000E+00

     total cpu time spent up to now is       42.1 secs

     WARNING: integrated charge=    32.00424112, expected=    32.00000000

     total energy              =    -260.70261562 Ry
     estimated scf accuracy    <       0.01281930 Ry

     iteration #  6     ecut=    50.00 Ry     beta= 0.30
     Davidson diagonalization with overlap

---- Real-time Memory Report at c_bands before calling an iterative solver
           296 MiB given to the printing process from OS
             0 MiB allocation reported by mallinfo(arena+hblkhd)
         26126 MiB available memory on the node where the printing process lives
------------------
     ethr =  4.01E-05,  avg # of iterations =  2.1

     negative rho (up, down):  1.267E-04 0.000E+00

     total cpu time spent up to now is       49.0 secs

     WARNING: integrated charge=    32.00549922, expected=    32.00000000

     total energy              =    -260.70462739 Ry
     estimated scf accuracy    <       0.00341630 Ry

     iteration #  7     ecut=    50.00 Ry     beta= 0.30
     Davidson diagonalization with overlap

---- Real-time Memory Report at c_bands before calling an iterative solver
           298 MiB given to the printing process from OS
             0 MiB allocation reported by mallinfo(arena+hblkhd)
         26092 MiB available memory on the node where the printing process lives
------------------
     ethr =  1.07E-05,  avg # of iterations =  4.0

     negative rho (up, down):  1.287E-04 0.000E+00

     total cpu time spent up to now is       56.6 secs

     WARNING: integrated charge=    32.00748494, expected=    32.00000000

     total energy              =    -260.70539825 Ry
     estimated scf accuracy    <       0.00100578 Ry

     iteration #  8     ecut=    50.00 Ry     beta= 0.30
     Davidson diagonalization with overlap

---- Real-time Memory Report at c_bands before calling an iterative solver
           300 MiB given to the printing process from OS
             0 MiB allocation reported by mallinfo(arena+hblkhd)
         26122 MiB available memory on the node where the printing process lives
------------------
     ethr =  3.14E-06,  avg # of iterations =  2.4

     negative rho (up, down):  1.266E-04 0.000E+00

     total cpu time spent up to now is       63.8 secs

     WARNING: integrated charge=    32.00862599, expected=    32.00000000

     total energy              =    -260.70572492 Ry
     estimated scf accuracy    <       0.00028003 Ry

     iteration #  9     ecut=    50.00 Ry     beta= 0.30
     Davidson diagonalization with overlap

---- Real-time Memory Report at c_bands before calling an iterative solver
           302 MiB given to the printing process from OS
             0 MiB allocation reported by mallinfo(arena+hblkhd)
         26110 MiB available memory on the node where the printing process lives
------------------
     ethr =  8.75E-07,  avg # of iterations =  1.3

     negative rho (up, down):  1.256E-04 0.000E+00

     total cpu time spent up to now is       70.6 secs

     WARNING: integrated charge=    32.00900912, expected=    32.00000000

     total energy              =    -260.70562476 Ry
     estimated scf accuracy    <       0.00000486 Ry

     iteration # 10     ecut=    50.00 Ry     beta= 0.30
     Davidson diagonalization with overlap

---- Real-time Memory Report at c_bands before calling an iterative solver
           304 MiB given to the printing process from OS
             0 MiB allocation reported by mallinfo(arena+hblkhd)
         26116 MiB available memory on the node where the printing process lives
------------------
     ethr =  1.52E-08,  avg # of iterations =  4.2

     negative rho (up, down):  1.248E-04 0.000E+00

     total cpu time spent up to now is       79.9 secs

     WARNING: integrated charge=    32.00910705, expected=    32.00000000

     total energy              =    -260.70565828 Ry
     estimated scf accuracy    <       0.00002540 Ry

     iteration # 11     ecut=    50.00 Ry     beta= 0.30
     Davidson diagonalization with overlap

---- Real-time Memory Report at c_bands before calling an iterative solver
           304 MiB given to the printing process from OS
             0 MiB allocation reported by mallinfo(arena+hblkhd)
         26116 MiB available memory on the node where the printing process lives
------------------
     ethr =  1.52E-08,  avg # of iterations =  2.1

     negative rho (up, down):  1.242E-04 0.000E+00

     total cpu time spent up to now is       87.2 secs

     WARNING: integrated charge=    32.00918099, expected=    32.00000000

     total energy              =    -260.70566247 Ry
     estimated scf accuracy    <       0.00000052 Ry

     iteration # 12     ecut=    50.00 Ry     beta= 0.30
     Davidson diagonalization with overlap

---- Real-time Memory Report at c_bands before calling an iterative solver
           304 MiB given to the printing process from OS
             0 MiB allocation reported by mallinfo(arena+hblkhd)
         26088 MiB available memory on the node where the printing process lives
------------------
     ethr =  1.61E-09,  avg # of iterations =  2.8

     negative rho (up, down):  1.238E-04 0.000E+00

     total cpu time spent up to now is       94.9 secs

     WARNING: integrated charge=    32.00923570, expected=    32.00000000

     total energy              =    -260.70566760 Ry
     estimated scf accuracy    <       0.00000013 Ry

     iteration # 13     ecut=    50.00 Ry     beta= 0.30
     Davidson diagonalization with overlap

---- Real-time Memory Report at c_bands before calling an iterative solver
           304 MiB given to the printing process from OS
             0 MiB allocation reported by mallinfo(arena+hblkhd)
         26126 MiB available memory on the node where the printing process lives
------------------
     ethr =  4.06E-10,  avg # of iterations =  2.2

     negative rho (up, down):  1.229E-04 0.000E+00

     total cpu time spent up to now is      102.6 secs

     End of self-consistent calculation

          k = 0.0000 0.0000 0.0000 (  8201 PWs)   bands (ev):

   -65.3131 -39.7380 -39.4686 -39.3151 -21.3358 -20.3181 -20.0767  -7.8228
    -7.5161  -7.0095  -6.1524  -5.8352  -5.8204  -4.8921  -4.5978  -4.4792
    -2.7431  -0.8631  -0.0051   0.7222

     occupation numbers 
     1.0000   1.0000   1.0000   1.0000   1.0000   1.0000   1.0000   1.0000
     1.0000   1.0000   1.0000   1.0000   1.0000   1.0000   1.0000   1.0000
     0.0648   0.0000   0.0000   0.0000

          k = 0.0000 0.0000 0.1785 (  8200 PWs)   bands (ev):

   -65.3122 -39.7365 -39.5021 -39.3136 -21.0658 -20.3033 -20.0689  -8.6400
    -7.1776  -6.9716  -6.6306  -5.9867  -5.4600  -5.0481  -4.7921  -4.5120
    -2.2303  -0.9224  -0.6691   1.1694

     occupation numbers 
     1.0000   1.0000   1.0000   1.0000   1.0000   1.0000   1.0000   1.0000
     1.0000   1.0000   1.0000   1.0000   1.0000   1.0000   1.0000   1.0000
     0.0000   0.0000   0.0000   0.0000

          k = 0.0000 0.0000 0.3571 (  8186 PWs)   bands (ev):

   -65.3105 -39.7332 -39.5683 -39.3106 -20.5048 -20.2431 -20.0531  -9.4747
    -7.6119  -7.0017  -6.9102  -6.4172  -5.5148  -5.1103  -4.8776  -4.6988
    -1.4383  -0.8225  -0.2896   1.2921

     occupation numbers 
     1.0000   1.0000   1.0000   1.0000   1.0000   1.0000   1.0000   1.0000
     1.0000   1.0000   1.0000   1.0000   1.0000   1.0000   1.0000   1.0000
     0.0000   0.0000   0.0000   0.0000

          k = 0.0000 0.0000-0.5356 (  8164 PWs)   bands (ev):

   -65.3097 -39.7314 -39.6011 -39.3091 -20.3355 -20.0673 -20.0466  -9.8272
    -8.0274  -7.0361  -6.9533  -6.6611  -5.5857  -5.1463  -4.8792  -4.7365
    -0.9861  -0.7474   0.2457   1.2730

     occupation numbers 
     1.0000   1.0000   1.0000   1.0000   1.0000   1.0000   1.0000   1.0000
     1.0000   1.0000   1.0000   1.0000   1.0000   1.0000   1.0000   1.0000
     0.0000   0.0000   0.0000   0.0000

          k = 0.0000-0.1430 0.0000 (  8170 PWs)   bands (ev):

   -65.3131 -39.7380 -39.4686 -39.3151 -21.3358 -20.3180 -20.0767  -7.8228
    -7.5161  -7.0095  -6.1524  -5.8352  -5.8204  -4.8921  -4.5978  -4.4792
    -2.7431  -0.8631  -0.0051   0.7224

     occupation numbers 
     1.0000   1.0000   1.0000   1.0000   1.0000   1.0000   1.0000   1.0000
     1.0000   1.0000   1.0000   1.0000   1.0000   1.0000   1.0000   1.0000
     0.0648   0.0000   0.0000   0.0000

          k = 0.0000-0.1430 0.1785 (  8208 PWs)   bands (ev):

   -65.3122 -39.7365 -39.5021 -39.3136 -21.0658 -20.3033 -20.0689  -8.6400
    -7.1776  -6.9716  -6.6306  -5.9867  -5.4600  -5.0481  -4.7921  -4.5120
    -2.2303  -0.9224  -0.6691   1.1701

     occupation numbers 
     1.0000   1.0000   1.0000   1.0000   1.0000   1.0000   1.0000   1.0000
     1.0000   1.0000   1.0000   1.0000   1.0000   1.0000   1.0000   1.0000
     0.0000   0.0000   0.0000   0.0000

          k = 0.0000-0.1430 0.3571 (  8190 PWs)   bands (ev):

   -65.3105 -39.7332 -39.5683 -39.3106 -20.5048 -20.2431 -20.0531  -9.4747
    -7.6119  -7.0017  -6.9102  -6.4172  -5.5148  -5.1103  -4.8776  -4.6988
    -1.4383  -0.8225  -0.2896   1.2923

     occupation numbers 
     1.0000   1.0000   1.0000   1.0000   1.0000   1.0000   1.0000   1.0000
     1.0000   1.0000   1.0000   1.0000   1.0000   1.0000   1.0000   1.0000
     0.0000   0.0000   0.0000   0.0000

          k = 0.0000-0.1430-0.5356 (  8164 PWs)   bands (ev):

   -65.3097 -39.7314 -39.6011 -39.3091 -20.3355 -20.0673 -20.0465  -9.8272
    -8.0274  -7.0361  -6.9532  -6.6611  -5.5857  -5.1463  -4.8792  -4.7365
    -0.9861  -0.7474   0.2457   1.2731

     occupation numbers 
     1.0000   1.0000   1.0000   1.0000   1.0000   1.0000   1.0000   1.0000
     1.0000   1.0000   1.0000   1.0000   1.0000   1.0000   1.0000   1.0000
     0.0000   0.0000   0.0000   0.0000

          k = 0.1667 0.0000 0.0000 (  8185 PWs)   bands (ev):

   -65.3128 -39.7375 -39.4680 -39.3300 -21.3136 -20.1773 -20.0254  -7.8266
    -7.7678  -7.2724  -6.6279  -6.0155  -5.7373  -5.1014  -4.7545  -4.5090
    -2.0807  -0.9705   0.0044   1.4814

     occupation numbers 
     1.0000   1.0000   1.0000   1.0000   1.0000   1.0000   1.0000   1.0000
     1.0000   1.0000   1.0000   1.0000   1.0000   1.0000   1.0000   1.0000
     0.0000   0.0000   0.0000   0.0000

          k = 0.1667 0.0000 0.1785 (  8187 PWs)   bands (ev):

   -65.3119 -39.7359 -39.5015 -39.3284 -21.0399 -20.1664 -20.0167  -8.6443
    -7.7117  -6.9786  -6.8188  -6.3942  -5.6225  -5.3080  -4.5524  -4.3917
    -1.8270  -0.9647  -0.6267   1.6176

     occupation numbers 
     1.0000   1.0000   1.0000   1.0000   1.0000   1.0000   1.0000   1.0000
     1.0000   1.0000   1.0000   1.0000   1.0000   1.0000   1.0000   1.0000
     0.0000   0.0000   0.0000   0.0000

          k = 0.1667 0.0000 0.3571 (  8203 PWs)   bands (ev):

   -65.3102 -39.7327 -39.5677 -39.3254 -20.4437 -20.1409 -20.0003  -9.4814
    -7.8099  -7.5204  -6.9130  -6.7043  -6.2096  -4.9649  -4.5060  -4.3832
    -1.3794  -0.8074  -0.2772   1.6241

     occupation numbers 
     1.0000   1.0000   1.0000   1.0000   1.0000   1.0000   1.0000   1.0000
     1.0000   1.0000   1.0000   1.0000   1.0000   1.0000   1.0000   1.0000
     0.0000   0.0000   0.0000   0.0000

          k = 0.1667 0.0000-0.5356 (  8214 PWs)   bands (ev):

   -65.3094 -39.7309 -39.6005 -39.3239 -20.1684 -20.0620 -20.0022  -9.8302
    -8.0894  -7.4685  -7.4661  -6.7338  -6.2101  -4.8525  -4.5678  -4.4185
    -1.0962  -0.6776   0.2679   1.4128

     occupation numbers 
     1.0000   1.0000   1.0000   1.0000   1.0000   1.0000   1.0000   1.0000
     1.0000   1.0000   1.0000   1.0000   1.0000   1.0000   1.0000   1.0000
     0.0000   0.0000   0.0000   0.0000

          k = 0.1667-0.1430 0.0000 (  8162 PWs)   bands (ev):

   -65.3128 -39.7375 -39.4680 -39.3300 -21.3135 -20.1773 -20.0253  -7.8266
    -7.7678  -7.2724  -6.6279  -6.0155  -5.7373  -5.1014  -4.7545  -4.5090
    -2.0807  -0.9705   0.0044   1.4850

     occupation numbers 
     1.0000   1.0000   1.0000   1.0000   1.0000   1.0000   1.0000   1.0000
     1.0000   1.0000   1.0000   1.0000   1.0000   1.0000   1.0000   1.0000
     0.0000   0.0000   0.0000   0.0000

          k = 0.1667-0.1430 0.1785 (  8172 PWs)   bands (ev):

   -65.3119 -39.7359 -39.5015 -39.3284 -21.0399 -20.1664 -20.0167  -8.6443
    -7.7117  -6.9786  -6.8188  -6.3942  -5.6225  -5.3080  -4.5524  -4.3917
    -1.8270  -0.9647  -0.6267   1.6206

     occupation numbers 
     1.0000   1.0000   1.0000   1.0000   1.0000   1.0000   1.0000   1.0000
     1.0000   1.0000   1.0000   1.0000   1.0000   1.0000   1.0000   1.0000
     0.0000   0.0000   0.0000   0.0000

          k = 0.1667-0.1430 0.3571 (  8196 PWs)   bands (ev):

   -65.3102 -39.7327 -39.5677 -39.3254 -20.4437 -20.1409 -20.0003  -9.4814
    -7.8099  -7.5204  -6.9130  -6.7043  -6.2096  -4.9649  -4.5060  -4.3832
    -1.3794  -0.8074  -0.2772   1.6247

     occupation numbers 
     1.0000   1.0000   1.0000   1.0000   1.0000   1.0000   1.0000   1.0000
     1.0000   1.0000   1.0000   1.0000   1.0000   1.0000   1.0000   1.0000
     0.0000   0.0000   0.0000   0.0000

          k = 0.1667-0.1430-0.5356 (  8192 PWs)   bands (ev):

   -65.3094 -39.7309 -39.6005 -39.3239 -20.1683 -20.0620 -20.0022  -9.8302
    -8.0894  -7.4685  -7.4661  -6.7338  -6.2101  -4.8525  -4.5678  -4.4185
    -1.0962  -0.6776   0.2679   1.4129

     occupation numbers 
     1.0000   1.0000   1.0000   1.0000   1.0000   1.0000   1.0000   1.0000
     1.0000   1.0000   1.0000   1.0000   1.0000   1.0000   1.0000   1.0000
     0.0000   0.0000   0.0000   0.0000

          k = 0.3333 0.0000 0.0000 (  8175 PWs)   bands (ev):

   -65.3123 -39.7364 -39.4669 -39.3597 -21.2804 -20.1064 -19.6611  -8.7274
    -7.8388  -7.4776  -7.2661  -6.3756  -5.7221  -5.4643  -4.9559  -4.2139
    -1.0844  -0.4970   0.0386   1.7510

     occupation numbers 
     1.0000   1.0000   1.0000   1.0000   1.0000   1.0000   1.0000   1.0000
     1.0000   1.0000   1.0000   1.0000   1.0000   1.0000   1.0000   1.0000
     0.0000   0.0000   0.0000   0.0000

          k = 0.3333 0.0000 0.1785 (  8169 PWs)   bands (ev):

   -65.3114 -39.7349 -39.5003 -39.3580 -21.0047 -20.0983 -19.6503  -8.8167
    -8.5493  -7.3739  -7.2479  -6.8433  -5.8030  -5.2915  -4.5218  -4.1710
    -0.9720  -0.6667  -0.4267   1.7742

     occupation numbers 
     1.0000   1.0000   1.0000   1.0000   1.0000   1.0000   1.0000   1.0000
     1.0000   1.0000   1.0000   1.0000   1.0000   1.0000   1.0000   1.0000
     0.0000   0.0000   0.0000   0.0000

          k = 0.3333 0.0000 0.3571 (  8187 PWs)   bands (ev):

   -65.3097 -39.7317 -39.5664 -39.3549 -20.3985 -20.0818 -19.6318  -9.5246
    -8.6097  -8.0781  -7.3270  -7.0495  -6.6449  -4.8962  -4.2396  -3.8190
    -0.9834  -0.4392  -0.1383   1.6186

     occupation numbers 
     1.0000   1.0000   1.0000   1.0000   1.0000   1.0000   1.0000   1.0000
     1.0000   1.0000   1.0000   1.0000   1.0000   1.0000   1.0000   1.0006
     0.0000   0.0000   0.0000   0.0000

          k = 0.3333 0.0000-0.5356 (  8186 PWs)   bands (ev):

   -65.3089 -39.7299 -39.5991 -39.3533 -20.0773 -20.0512 -19.6297  -9.8493
    -8.5328  -8.4198  -7.7456  -7.2694  -6.6034  -4.7996  -4.2319  -3.6800
    -0.6786  -0.4772   0.3634   1.3319

     occupation numbers 
     1.0000   1.0000   1.0000   1.0000   1.0000   1.0000   1.0000   1.0000
     1.0000   1.0000   1.0000   1.0000   1.0000   1.0000   1.0000   1.0055
     0.0000   0.0000   0.0000   0.0000

          k = 0.3333-0.1430 0.0000 (  8170 PWs)   bands (ev):

   -65.3123 -39.7364 -39.4669 -39.3597 -21.2804 -20.1064 -19.6611  -8.7274
    -7.8388  -7.4776  -7.2661  -6.3756  -5.7221  -5.4643  -4.9559  -4.2139
    -1.0844  -0.4970   0.0386   1.7525

     occupation numbers 
     1.0000   1.0000   1.0000   1.0000   1.0000   1.0000   1.0000   1.0000
     1.0000   1.0000   1.0000   1.0000   1.0000   1.0000   1.0000   1.0000
     0.0000   0.0000   0.0000   0.0000

          k = 0.3333-0.1430 0.1785 (  8144 PWs)   bands (ev):

   -65.3114 -39.7349 -39.5003 -39.3580 -21.0047 -20.0983 -19.6503  -8.8167
    -8.5493  -7.3739  -7.2479  -6.8433  -5.8030  -5.2915  -4.5218  -4.1710
    -0.9720  -0.6667  -0.4267   1.7751

     occupation numbers 
     1.0000   1.0000   1.0000   1.0000   1.0000   1.0000   1.0000   1.0000
     1.0000   1.0000   1.0000   1.0000   1.0000   1.0000   1.0000   1.0000
     0.0000   0.0000   0.0000   0.0000

          k = 0.3333-0.1430 0.3571 (  8190 PWs)   bands (ev):

   -65.3097 -39.7317 -39.5664 -39.3549 -20.3985 -20.0818 -19.6318  -9.5246
    -8.6097  -8.0781  -7.3270  -7.0495  -6.6449  -4.8962  -4.2396  -3.8190
    -0.9834  -0.4392  -0.1383   1.6188

     occupation numbers 
     1.0000   1.0000   1.0000   1.0000   1.0000   1.0000   1.0000   1.0000
     1.0000   1.0000   1.0000   1.0000   1.0000   1.0000   1.0000   1.0006
     0.0000   0.0000   0.0000   0.0000

          k = 0.3333-0.1430-0.5356 (  8204 PWs)   bands (ev):

   -65.3089 -39.7299 -39.5991 -39.3533 -20.0773 -20.0512 -19.6297  -9.8493
    -8.5328  -8.4198  -7.7456  -7.2694  -6.6034  -4.7996  -4.2319  -3.6800
    -0.6786  -0.4772   0.3634   1.3320

     occupation numbers 
     1.0000   1.0000   1.0000   1.0000   1.0000   1.0000   1.0000   1.0000
     1.0000   1.0000   1.0000   1.0000   1.0000   1.0000   1.0000   1.0055
     0.0000   0.0000   0.0000   0.0000

          k =-0.5000 0.0000 0.0000 (  8140 PWs)   bands (ev):

   -65.3120 -39.7359 -39.4663 -39.3744 -21.2674 -20.0981 -19.4231  -9.2875
    -7.8480  -7.7146  -7.3114  -6.5385  -5.7444  -5.5540  -4.9996  -4.1375
    -0.6633  -0.0876   0.0806   1.7535

     occupation numbers 
     1.0000   1.0000   1.0000   1.0000   1.0000   1.0000   1.0000   1.0000
     1.0000   1.0000   1.0000   1.0000   1.0000   1.0000   1.0000   1.0000
     0.0000   0.0000   0.0000   0.0000

          k =-0.5000 0.0000 0.1785 (  8140 PWs)   bands (ev):

   -65.3111 -39.7344 -39.4997 -39.3727 -20.9918 -20.0903 -19.4111  -9.3137
    -8.6069  -7.6802  -7.4188  -6.8568  -5.8302  -5.2797  -4.5746  -4.0865
    -0.6580  -0.5075  -0.0615   1.7346

     occupation numbers 
     1.0000   1.0000   1.0000   1.0000   1.0000   1.0000   1.0000   1.0000
     1.0000   1.0000   1.0000   1.0000   1.0000   1.0000   1.0000   1.0000
     0.0000   0.0000   0.0000   0.0000

          k =-0.5000 0.0000 0.3571 (  8162 PWs)   bands (ev):

   -65.3094 -39.7312 -39.5658 -39.3695 -20.3869 -20.0743 -19.3889  -9.6205
    -9.0675  -8.2947  -7.6049  -7.0873  -6.6648  -4.8787  -4.1809  -3.6400
    -0.7863  -0.0942   0.0101   1.5169

     occupation numbers 
     1.0000   1.0000   1.0000   1.0000   1.0000   1.0000   1.0000   1.0000
     1.0000   1.0000   1.0000   1.0000   1.0000   1.0000   1.0000   1.0093
     0.0000   0.0000   0.0000   0.0000

          k =-0.5000 0.0000-0.5356 (  8212 PWs)   bands (ev):

   -65.3086 -39.7294 -39.5985 -39.3679 -20.0685 -20.0458 -19.3808  -9.8848
    -9.0886  -8.6233  -7.7703  -7.5482  -6.6211  -4.7882  -4.1494  -3.4101
    -0.3591  -0.2856   0.4638   1.2008

     occupation numbers 
     1.0000   1.0000   1.0000   1.0000   1.0000   1.0000   1.0000   1.0000
     1.0000   1.0000   1.0000   1.0000   1.0000   1.0000   1.0000   1.0697
     0.0000   0.0000   0.0000   0.0000

          k =-0.5000-0.1430 0.0000 (  8120 PWs)   bands (ev):

   -65.3120 -39.7359 -39.4663 -39.3744 -21.2673 -20.0981 -19.4231  -9.2875
    -7.8480  -7.7146  -7.3114  -6.5385  -5.7444  -5.5540  -4.9996  -4.1375
    -0.6633  -0.0876   0.0806   1.7539

     occupation numbers 
     1.0000   1.0000   1.0000   1.0000   1.0000   1.0000   1.0000   1.0000
     1.0000   1.0000   1.0000   1.0000   1.0000   1.0000   1.0000   1.0000
     0.0000   0.0000   0.0000   0.0000

          k =-0.5000-0.1430 0.1785 (  8160 PWs)   bands (ev):

   -65.3111 -39.7344 -39.4997 -39.3727 -20.9918 -20.0903 -19.4111  -9.3137
    -8.6069  -7.6802  -7.4188  -6.8568  -5.8302  -5.2797  -4.5746  -4.0865
    -0.6580  -0.5075  -0.0615   1.7348

     occupation numbers 
     1.0000   1.0000   1.0000   1.0000   1.0000   1.0000   1.0000   1.0000
     1.0000   1.0000   1.0000   1.0000   1.0000   1.0000   1.0000   1.0000
     0.0000   0.0000   0.0000   0.0000

          k =-0.5000-0.1430 0.3571 (  8188 PWs)   bands (ev):

   -65.3094 -39.7312 -39.5658 -39.3695 -20.3869 -20.0743 -19.3889  -9.6205
    -9.0675  -8.2947  -7.6049  -7.0873  -6.6648  -4.8787  -4.1809  -3.6400
    -0.7863  -0.0942   0.0101   1.5170

     occupation numbers 
     1.0000   1.0000   1.0000   1.0000   1.0000   1.0000   1.0000   1.0000
     1.0000   1.0000   1.0000   1.0000   1.0000   1.0000   1.0000   1.0093
     0.0000   0.0000   0.0000   0.0000

          k =-0.5000-0.1430-0.5356 (  8192 PWs)   bands (ev):

   -65.3086 -39.7294 -39.5985 -39.3679 -20.0685 -20.0458 -19.3808  -9.8848
    -9.0886  -8.6233  -7.7703  -7.5482  -6.6211  -4.7882  -4.1495  -3.4101
    -0.3591  -0.2856   0.4638   1.2008

     occupation numbers 
     1.0000   1.0000   1.0000   1.0000   1.0000   1.0000   1.0000   1.0000
     1.0000   1.0000   1.0000   1.0000   1.0000   1.0000   1.0000   1.0697
     0.0000   0.0000   0.0000   0.0000

     the Fermi energy is    -2.9507 ev

     WARNING: integrated charge=    32.00925392, expected=    32.00000000

!    total energy              =    -260.70566587 Ry
     estimated scf accuracy    <          1.6E-09 Ry
     smearing contrib. (-TS)   =       0.00019356 Ry
     internal energy E=F+TS    =    -260.70585944 Ry

     The total energy is F=E-TS. E is the sum of the following terms:
     one-electron contribution =    -784.60301333 Ry
     hartree contribution      =     393.85261719 Ry
     xc contribution           =     -36.98545586 Ry
     ewald contribution        =     194.37798089 Ry
     one-center paw contrib.   =     -27.34798833 Ry
      -> PAW hartree energy AE =      77.88934008 Ry
      -> PAW hartree energy PS =     -77.52734206 Ry
      -> PAW xc energy AE      =     -48.52372937 Ry
      -> PAW xc energy PS      =      20.81374303 Ry
      -> total E_H with PAW    =     394.21461521 Ry
      -> total E_XC with PAW   =     -64.69544221 Ry

     convergence has been achieved in  13 iterations

     negative rho (up, down):  1.229E-04 0.000E+00

     Forces acting on atoms (cartesian axes, Ry/au):

     atom    1 type  1   force =     0.01360428   -0.11744300    0.00000000
     atom    2 type  2   force =     0.02640287    0.02840283    0.00000000
     atom    3 type  2   force =    -0.08743957    0.01647296    0.00000000
     atom    4 type  2   force =     0.04743242    0.07256721    0.00000000
     The non-local contrib.  to forces
     atom    1 type  1   force =     0.01450389   -0.10105733    0.00000000
     atom    2 type  2   force =     0.23955812   -0.22498604    0.00000000
     atom    3 type  2   force =    -0.14749300   -0.03474068    0.00000000
     atom    4 type  2   force =     0.32260981    1.47723289    0.00000000
     The ionic contribution  to forces
     atom    1 type  1   force =     2.80380211   12.16794367    0.00000000
     atom    2 type  2   force =    -1.26951084   13.26822908   -0.00000000
     atom    3 type  2   force =     0.03051096    8.42785899   -0.00000000
     atom    4 type  2   force =    -1.56480222  -33.86403174   -0.00000000
     The local contribution  to forces
     atom    1 type  1   force =    -2.80476258  -12.18428020    0.00000000
     atom    2 type  2   force =     1.05822228  -13.01588444    0.00000000
     atom    3 type  2   force =     0.02862453   -8.37642703    0.00000000
     atom    4 type  2   force =     1.29233217   32.46940721    0.00000000
     The core correction contribution to forces
     atom    1 type  1   force =     0.00000000    0.00000000    0.00000000
     atom    2 type  2   force =    -0.00188152    0.00101599    0.00000000
     atom    3 type  2   force =     0.00093661   -0.00024420    0.00000000
     atom    4 type  2   force =    -0.00271891   -0.01009399   -0.00000000
     The Hubbard contrib.    to forces
     atom    1 type  1   force =     0.00000000    0.00000000    0.00000000
     atom    2 type  2   force =     0.00000000    0.00000000    0.00000000
     atom    3 type  2   force =     0.00000000    0.00000000    0.00000000
     atom    4 type  2   force =     0.00000000    0.00000000    0.00000000
     The SCF correction term to forces
     atom    1 type  1   force =     0.00006312   -0.00006242   -0.00000000
     atom    2 type  2   force =     0.00001707    0.00001496    0.00000000
     atom    3 type  2   force =    -0.00001642    0.00001259   -0.00000000
     atom    4 type  2   force =     0.00001382    0.00003957    0.00000000

     Total force =     0.175826     Total SCF correction =     0.000103


     Computing stress (Cartesian axis) and pressure


     negative rho (up, down):  1.229E-04 0.000E+00
          total   stress  (Ry/bohr**3)                   (kbar)     P=      -32.55
  -0.00043687  -0.00012322   0.00000000          -64.27      -18.13        0.00
  -0.00012322  -0.00014928   0.00000000          -18.13      -21.96        0.00
   0.00000000   0.00000000  -0.00007771            0.00        0.00      -11.43

     kinetic stress (kbar)   6502.20    -16.57      0.00
                              -16.57   6584.50      0.00
                                0.00      0.00   6499.77

     local   stress (kbar) -75708.82   -619.23      0.00
                             -619.23  67666.73      0.00
                                0.00      0.00 -77011.17

     nonloc. stress (kbar)   1984.56     -4.95      0.00
                               -4.95   1956.22      0.00
                                0.00      0.00   1984.22

     hartree stress (kbar)  37088.70    183.89      0.00
                              183.89 -32341.42     -0.00
                                0.00     -0.00  37538.62

     exc-cor stress (kbar)  -1099.36      0.64     -0.00
                                0.64  -1102.29     -0.00
                               -0.00     -0.00  -1099.16

     corecor stress (kbar)   -136.68     -0.00     -0.00
                               -0.00   -136.94      0.00
                               -0.00      0.00   -136.68

     ewald   stress (kbar)  31305.13    438.09      0.00
                              438.09 -42648.76     -0.00
                                0.00     -0.00  32212.97

     hubbard stress (kbar)      0.00      0.00      0.00
                                0.00      0.00      0.00
                                0.00      0.00      0.00

     DFT-D   stress (kbar)      0.00      0.00      0.00
                                0.00      0.00      0.00
                                0.00      0.00      0.00

     XDM     stress (kbar)      0.00      0.00      0.00
                                0.00      0.00      0.00
                                0.00      0.00      0.00

     dft-nl  stress (kbar)      0.00      0.00      0.00
                                0.00      0.00      0.00
                                0.00      0.00      0.00

     TS-vdW  stress (kbar)      0.00      0.00      0.00
                                0.00      0.00      0.00
                                0.00      0.00      0.00

     MDB     stress (kbar)      0.00      0.00      0.00
                                0.00      0.00      0.00
                                0.00      0.00      0.00

     3D-RISM stress (kbar)      0.00      0.00      0.00
                                0.00      0.00      0.00
                                0.00      0.00      0.00


     BFGS Geometry Optimization
     Energy error            =      0.0E+00 Ry
     Gradient error          =      1.2E-01 Ry/Bohr

     number of scf cycles    =   1
     number of bfgs steps    =   0

     energy             new  =    -260.7056658711 Ry

     new trust radius        =       0.1182283135 bohr
     new conv_thr            =       0.0000000100 Ry


ATOMIC_POSITIONS (crystal)
Mo               0.5768169851        0.3935143878        0.7500000000
O                0.5295263609        0.4270848163        0.2500000000
O                0.0543215903        0.4146291673        0.7500000000
O                0.5163350637        0.2787716287        0.7500000000



     Writing config-only to output data dir ./out/aiida.save/ :
     XML data file
     NEW-OLD atomic charge density approx. for the potential

     Check: negative core charge=   -0.000001

     negative rho (up, down):  2.754E-04 0.000E+00
     extrapolated charge   32.00925, renormalised to   32.00000

     total cpu time spent up to now is      110.3 secs

     Self-consistent Calculation

     iteration #  1     ecut=    50.00 Ry     beta= 0.30
     Davidson diagonalization with overlap

---- Real-time Memory Report at c_bands before calling an iterative solver
           326 MiB given to the printing process from OS
             0 MiB allocation reported by mallinfo(arena+hblkhd)
         26110 MiB available memory on the node where the printing process lives
------------------
     c_bands:  1 eigenvalues not converged
     c_bands:  1 eigenvalues not converged
     ethr =  1.00E-06,  avg # of iterations = 14.7

     negative rho (up, down):  1.892E-04 0.000E+00

     total cpu time spent up to now is      135.3 secs

     WARNING: integrated charge=    32.00131253, expected=    32.00000000

     total energy              =    -260.71241575 Ry
     estimated scf accuracy    <       0.01020034 Ry

     iteration #  2     ecut=    50.00 Ry     beta= 0.30
     Davidson diagonalization with overlap

---- Real-time Memory Report at c_bands before calling an iterative solver
           326 MiB given to the printing process from OS
             0 MiB allocation reported by mallinfo(arena+hblkhd)
         26137 MiB available memory on the node where the printing process lives
------------------
     ethr =  3.19E-05,  avg # of iterations =  2.0

     negative rho (up, down):  1.638E-04 0.000E+00

     total cpu time spent up to now is      142.8 secs

     WARNING: integrated charge=    32.00258975, expected=    32.00000000

     total energy              =    -260.71275613 Ry
     estimated scf accuracy    <       0.00368067 Ry

     iteration #  3     ecut=    50.00 Ry     beta= 0.30
     Davidson diagonalization with overlap

---- Real-time Memory Report at c_bands before calling an iterative solver
           326 MiB given to the printing process from OS
             0 MiB allocation reported by mallinfo(arena+hblkhd)
         26132 MiB available memory on the node where the printing process lives
------------------
     ethr =  1.15E-05,  avg # of iterations =  2.0

     negative rho (up, down):  1.467E-04 0.000E+00

     total cpu time spent up to now is      150.7 secs

     WARNING: integrated charge=    32.00398721, expected=    32.00000000

     total energy              =    -260.71264985 Ry
     estimated scf accuracy    <       0.00144532 Ry

     iteration #  4     ecut=    50.00 Ry     beta= 0.30
     Davidson diagonalization with overlap

---- Real-time Memory Report at c_bands before calling an iterative solver
           326 MiB given to the printing process from OS
             0 MiB allocation reported by mallinfo(arena+hblkhd)
         26125 MiB available memory on the node where the printing process lives
------------------
     ethr =  4.52E-06,  avg # of iterations =  2.5

     negative rho (up, down):  1.405E-04 0.000E+00

     total cpu time spent up to now is      158.3 secs

     WARNING: integrated charge=    32.00447830, expected=    32.00000000

     total energy              =    -260.71286349 Ry
     estimated scf accuracy    <       0.00011188 Ry

     iteration #  5     ecut=    50.00 Ry     beta= 0.30
     Davidson diagonalization with overlap

---- Real-time Memory Report at c_bands before calling an iterative solver
           326 MiB given to the printing process from OS
             0 MiB allocation reported by mallinfo(arena+hblkhd)
         26109 MiB available memory on the node where the printing process lives
------------------
     ethr =  3.50E-07,  avg # of iterations =  2.0

     negative rho (up, down):  1.358E-04 0.000E+00

     total cpu time spent up to now is      165.9 secs

     WARNING: integrated charge=    32.00517161, expected=    32.00000000

     total energy              =    -260.71291254 Ry
     estimated scf accuracy    <       0.00003596 Ry

     iteration #  6     ecut=    50.00 Ry     beta= 0.30
     Davidson diagonalization with overlap

---- Real-time Memory Report at c_bands before calling an iterative solver
           326 MiB given to the printing process from OS
             0 MiB allocation reported by mallinfo(arena+hblkhd)
         26123 MiB available memory on the node where the printing process lives
------------------
     ethr =  1.12E-07,  avg # of iterations =  1.7

     negative rho (up, down):  1.336E-04 0.000E+00

     total cpu time spent up to now is      173.2 secs

     WARNING: integrated charge=    32.00533719, expected=    32.00000000

     total energy              =    -260.71289938 Ry
     estimated scf accuracy    <       0.00000241 Ry

     iteration #  7     ecut=    50.00 Ry     beta= 0.30
     Davidson diagonalization with overlap

---- Real-time Memory Report at c_bands before calling an iterative solver
           326 MiB given to the printing process from OS
             0 MiB allocation reported by mallinfo(arena+hblkhd)
         26117 MiB available memory on the node where the printing process lives
------------------
     ethr =  7.53E-09,  avg # of iterations =  3.0

     negative rho (up, down):  1.323E-04 0.000E+00

     total cpu time spent up to now is      181.9 secs

     WARNING: integrated charge=    32.00537978, expected=    32.00000000

     total energy              =    -260.71289442 Ry
     estimated scf accuracy    <       0.00000060 Ry

     iteration #  8     ecut=    50.00 Ry     beta= 0.30
     Davidson diagonalization with overlap

---- Real-time Memory Report at c_bands before calling an iterative solver
           326 MiB given to the printing process from OS
             0 MiB allocation reported by mallinfo(arena+hblkhd)
         26112 MiB available memory on the node where the printing process lives
------------------
     ethr =  1.86E-09,  avg # of iterations =  2.8

     negative rho (up, down):  1.315E-04 0.000E+00

     total cpu time spent up to now is      189.9 secs

     WARNING: integrated charge=    32.00540066, expected=    32.00000000

     total energy              =    -260.71289567 Ry
     estimated scf accuracy    <       0.00000009 Ry

     iteration #  9     ecut=    50.00 Ry     beta= 0.30
     Davidson diagonalization with overlap

---- Real-time Memory Report at c_bands before calling an iterative solver
           326 MiB given to the printing process from OS
             0 MiB allocation reported by mallinfo(arena+hblkhd)
         26124 MiB available memory on the node where the printing process lives
------------------
     ethr =  2.71E-10,  avg # of iterations =  2.2

     negative rho (up, down):  1.310E-04 0.000E+00

     total cpu time spent up to now is      198.6 secs

     WARNING: integrated charge=    32.00540452, expected=    32.00000000

     total energy              =    -260.71289772 Ry
     estimated scf accuracy    <       0.00000003 Ry

     iteration # 10     ecut=    50.00 Ry     beta= 0.30
     Davidson diagonalization with overlap

---- Real-time Memory Report at c_bands before calling an iterative solver
           326 MiB given to the printing process from OS
             0 MiB allocation reported by mallinfo(arena+hblkhd)
         26109 MiB available memory on the node where the printing process lives
------------------
     ethr =  1.09E-10,  avg # of iterations =  2.0

     negative rho (up, down):  1.301E-04 0.000E+00

     total cpu time spent up to now is      206.1 secs

     End of self-consistent calculation

          k = 0.0000 0.0000 0.0000 (  8201 PWs)   bands (ev):

   -65.2197 -40.0923 -39.2888 -39.1868 -21.0189 -20.5420 -20.0912  -8.3084
    -8.0077  -7.7131  -6.2259  -6.1099  -5.7332  -4.9213  -4.5443  -4.3680
    -2.4667  -0.1744   0.7621   1.0533

     occupation numbers 
     1.0000   1.0000   1.0000   1.0000   1.0000   1.0000   1.0000   1.0000
     1.0000   1.0000   1.0000   1.0000   1.0000   1.0000   1.0000   1.0000
     0.0406   0.0000   0.0000   0.0000

          k = 0.0000 0.0000 0.1785 (  8200 PWs)   bands (ev):

   -65.2189 -40.0907 -39.3207 -39.1853 -20.7940 -20.5173 -20.0770  -8.8469
    -7.7171  -7.6862  -6.8070  -6.1030  -5.4794  -5.0166  -4.7916  -4.3755
    -1.9933  -0.3231  -0.0124   1.6721

     occupation numbers 
     1.0000   1.0000   1.0000   1.0000   1.0000   1.0000   1.0000   1.0000
     1.0000   1.0000   1.0000   1.0000   1.0000   1.0000   1.0000   1.0000
     0.0000   0.0000   0.0000   0.0000

          k = 0.0000 0.0000 0.3571 (  8186 PWs)   bands (ev):

   -65.2172 -40.0874 -39.3836 -39.1825 -20.5636 -20.2420 -20.0172  -9.3124
    -7.7975  -7.5888  -7.5612  -6.4553  -5.4522  -5.1486  -4.7929  -4.6870
    -1.2719  -0.2876   0.1167   1.7918

     occupation numbers 
     1.0000   1.0000   1.0000   1.0000   1.0000   1.0000   1.0000   1.0000
     1.0000   1.0000   1.0000   1.0000   1.0000   1.0000   1.0000   1.0000
     0.0000   0.0000   0.0000   0.0000

          k = 0.0000 0.0000-0.5356 (  8164 PWs)   bands (ev):

   -65.2164 -40.0857 -39.4147 -39.1811 -20.5435 -20.1095 -19.8639  -9.3867
    -8.3618  -7.5415  -7.5146  -6.7623  -5.5472  -5.0856  -4.8459  -4.8102
    -0.6821  -0.4132   0.5011   1.6981

     occupation numbers 
     1.0000   1.0000   1.0000   1.0000   1.0000   1.0000   1.0000   1.0000
     1.0000   1.0000   1.0000   1.0000   1.0000   1.0000   1.0000   1.0000
     0.0000   0.0000   0.0000   0.0000

          k = 0.0000-0.1430 0.0000 (  8170 PWs)   bands (ev):

   -65.2197 -40.0923 -39.2888 -39.1868 -21.0189 -20.5420 -20.0912  -8.3084
    -8.0077  -7.7131  -6.2259  -6.1099  -5.7332  -4.9213  -4.5443  -4.3680
    -2.4667  -0.1744   0.7621   1.0535

     occupation numbers 
     1.0000   1.0000   1.0000   1.0000   1.0000   1.0000   1.0000   1.0000
     1.0000   1.0000   1.0000   1.0000   1.0000   1.0000   1.0000   1.0000
     0.0406   0.0000   0.0000   0.0000

          k = 0.0000-0.1430 0.1785 (  8208 PWs)   bands (ev):

   -65.2189 -40.0907 -39.3207 -39.1853 -20.7940 -20.5173 -20.0770  -8.8469
    -7.7171  -7.6862  -6.8070  -6.1030  -5.4794  -5.0166  -4.7916  -4.3755
    -1.9933  -0.3231  -0.0124   1.6722

     occupation numbers 
     1.0000   1.0000   1.0000   1.0000   1.0000   1.0000   1.0000   1.0000
     1.0000   1.0000   1.0000   1.0000   1.0000   1.0000   1.0000   1.0000
     0.0000   0.0000   0.0000   0.0000

          k = 0.0000-0.1430 0.3571 (  8190 PWs)   bands (ev):

   -65.2172 -40.0874 -39.3836 -39.1825 -20.5636 -20.2420 -20.0172  -9.3124
    -7.7975  -7.5888  -7.5612  -6.4553  -5.4522  -5.1486  -4.7929  -4.6870
    -1.2719  -0.2876   0.1167   1.7917

     occupation numbers 
     1.0000   1.0000   1.0000   1.0000   1.0000   1.0000   1.0000   1.0000
     1.0000   1.0000   1.0000   1.0000   1.0000   1.0000   1.0000   1.0000
     0.0000   0.0000   0.0000   0.0000

          k = 0.0000-0.1430-0.5356 (  8164 PWs)   bands (ev):

   -65.2164 -40.0857 -39.4147 -39.1811 -20.5435 -20.1095 -19.8639  -9.3867
    -8.3618  -7.5415  -7.5146  -6.7623  -5.5472  -5.0856  -4.8459  -4.8102
    -0.6821  -0.4132   0.5011   1.6981

     occupation numbers 
     1.0000   1.0000   1.0000   1.0000   1.0000   1.0000   1.0000   1.0000
     1.0000   1.0000   1.0000   1.0000   1.0000   1.0000   1.0000   1.0000
     0.0000   0.0000   0.0000   0.0000

          k = 0.1667 0.0000 0.0000 (  8185 PWs)   bands (ev):

   -65.2195 -40.0919 -39.2883 -39.2013 -20.9896 -20.5371 -19.9239  -8.2999
    -8.2497  -7.7548  -6.7615  -6.2435  -5.6660  -4.8977  -4.8269  -4.4998
    -1.8632  -0.4537   0.7660   1.8737

     occupation numbers 
     1.0000   1.0000   1.0000   1.0000   1.0000   1.0000   1.0000   1.0000
     1.0000   1.0000   1.0000   1.0000   1.0000   1.0000   1.0000   1.0000
     0.0000   0.0000   0.0000   0.0000

          k = 0.1667 0.0000 0.1785 (  8187 PWs)   bands (ev):

   -65.2186 -40.0903 -39.3201 -39.1997 -20.7582 -20.5152 -19.9128  -8.8385
    -8.1618  -7.5495  -7.0142  -6.5023  -5.5579  -5.3767  -4.5799  -4.2578
    -1.6303  -0.4786   0.0166   2.3156

     occupation numbers 
     1.0000   1.0000   1.0000   1.0000   1.0000   1.0000   1.0000   1.0000
     1.0000   1.0000   1.0000   1.0000   1.0000   1.0000   1.0000   1.0000
     0.0000   0.0000   0.0000   0.0000

          k = 0.1667 0.0000 0.3571 (  8203 PWs)   bands (ev):

   -65.2170 -40.0870 -39.3830 -39.1968 -20.5450 -20.1856 -19.8889  -9.3105
    -8.1022  -7.8363  -7.4157  -6.8380  -6.1579  -5.0803  -4.5294  -4.2586
    -1.1811  -0.3989   0.0877   2.3861

     occupation numbers 
     1.0000   1.0000   1.0000   1.0000   1.0000   1.0000   1.0000   1.0000
     1.0000   1.0000   1.0000   1.0000   1.0000   1.0000   1.0000   1.0000
     0.0000   0.0000   0.0000   0.0000

          k = 0.1667 0.0000-0.5356 (  8214 PWs)   bands (ev):

   -65.2161 -40.0854 -39.4140 -39.1954 -20.5295 -19.9250 -19.8584  -9.3916
    -8.3799  -7.9977  -7.3695  -7.2699  -6.2152  -4.9665  -4.5972  -4.3168
    -0.6340  -0.6222   0.5171   2.1183

     occupation numbers 
     1.0000   1.0000   1.0000   1.0000   1.0000   1.0000   1.0000   1.0000
     1.0000   1.0000   1.0000   1.0000   1.0000   1.0000   1.0000   1.0000
     0.0000   0.0000   0.0000   0.0000

          k = 0.1667-0.1430 0.0000 (  8162 PWs)   bands (ev):

   -65.2195 -40.0919 -39.2883 -39.2013 -20.9896 -20.5371 -19.9239  -8.2999
    -8.2497  -7.7548  -6.7615  -6.2435  -5.6660  -4.8977  -4.8269  -4.4998
    -1.8632  -0.4537   0.7661   1.8766

     occupation numbers 
     1.0000   1.0000   1.0000   1.0000   1.0000   1.0000   1.0000   1.0000
     1.0000   1.0000   1.0000   1.0000   1.0000   1.0000   1.0000   1.0000
     0.0000   0.0000   0.0000   0.0000

          k = 0.1667-0.1430 0.1785 (  8172 PWs)   bands (ev):

   -65.2186 -40.0903 -39.3201 -39.1997 -20.7582 -20.5152 -19.9128  -8.8385
    -8.1618  -7.5495  -7.0142  -6.5023  -5.5579  -5.3767  -4.5799  -4.2578
    -1.6303  -0.4786   0.0166   2.3242

     occupation numbers 
     1.0000   1.0000   1.0000   1.0000   1.0000   1.0000   1.0000   1.0000
     1.0000   1.0000   1.0000   1.0000   1.0000   1.0000   1.0000   1.0000
     0.0000   0.0000   0.0000   0.0000

          k = 0.1667-0.1430 0.3571 (  8196 PWs)   bands (ev):

   -65.2170 -40.0870 -39.3830 -39.1968 -20.5450 -20.1856 -19.8889  -9.3105
    -8.1022  -7.8363  -7.4157  -6.8380  -6.1579  -5.0803  -4.5294  -4.2586
    -1.1811  -0.3989   0.0877   2.3877

     occupation numbers 
     1.0000   1.0000   1.0000   1.0000   1.0000   1.0000   1.0000   1.0000
     1.0000   1.0000   1.0000   1.0000   1.0000   1.0000   1.0000   1.0000
     0.0000   0.0000   0.0000   0.0000

          k = 0.1667-0.1430-0.5356 (  8192 PWs)   bands (ev):

   -65.2161 -40.0854 -39.4140 -39.1954 -20.5295 -19.9250 -19.8584  -9.3916
    -8.3799  -7.9977  -7.3695  -7.2699  -6.2152  -4.9665  -4.5972  -4.3169
    -0.6340  -0.6222   0.5171   2.1185

     occupation numbers 
     1.0000   1.0000   1.0000   1.0000   1.0000   1.0000   1.0000   1.0000
     1.0000   1.0000   1.0000   1.0000   1.0000   1.0000   1.0000   1.0000
     0.0000   0.0000   0.0000   0.0000

          k = 0.3333 0.0000 0.0000 (  8175 PWs)   bands (ev):

   -65.2189 -40.0911 -39.2872 -39.2299 -20.9471 -20.5292 -19.5375  -8.7975
    -8.2814  -7.8330  -7.6804  -6.5385  -5.6207  -5.1880  -5.0900  -4.3318
    -0.9060  -0.1340   0.7756   2.3830

     occupation numbers 
     1.0000   1.0000   1.0000   1.0000   1.0000   1.0000   1.0000   1.0000
     1.0000   1.0000   1.0000   1.0000   1.0000   1.0000   1.0000   1.0000
     0.0000   0.0000   0.0000   0.0000

          k = 0.3333 0.0000 0.1785 (  8169 PWs)   bands (ev):

   -65.2181 -40.0895 -39.3190 -39.2283 -20.7104 -20.5106 -19.5268  -8.8493
    -8.7519  -7.7901  -7.4313  -7.1330  -5.8640  -5.3221  -4.4616  -4.1744
    -0.8372  -0.1797   0.0683   2.5411

     occupation numbers 
     1.0000   1.0000   1.0000   1.0000   1.0000   1.0000   1.0000   1.0000
     1.0000   1.0000   1.0000   1.0000   1.0000   1.0000   1.0000   1.0000
     0.0000   0.0000   0.0000   0.0000

          k = 0.3333 0.0000 0.3571 (  8187 PWs)   bands (ev):

   -65.2164 -40.0863 -39.3818 -39.2253 -20.5253 -20.1435 -19.5091  -9.3209
    -8.7053  -8.0921  -7.7295  -7.2190  -6.9022  -5.0131  -4.3630  -3.6634
    -0.7985  -0.1383   0.1634   2.3311

     occupation numbers 
     1.0000   1.0000   1.0000   1.0000   1.0000   1.0000   1.0000   1.0000
     1.0000   1.0000   1.0000   1.0000   1.0000   1.0000   1.0000   1.0001
     0.0000   0.0000   0.0000   0.0000

          k = 0.3333 0.0000-0.5356 (  8186 PWs)   bands (ev):

   -65.2156 -40.0846 -39.4127 -39.2238 -20.5137 -19.8471 -19.5088  -9.4127
    -8.6019  -8.4840  -7.7944  -7.7043  -6.9640  -4.9394  -4.3650  -3.5256
    -0.4340  -0.3566   0.5807   2.0207

     occupation numbers 
     1.0000   1.0000   1.0000   1.0000   1.0000   1.0000   1.0000   1.0000
     1.0000   1.0000   1.0000   1.0000   1.0000   1.0000   1.0000   1.0016
     0.0000   0.0000   0.0000   0.0000

          k = 0.3333-0.1430 0.0000 (  8170 PWs)   bands (ev):

   -65.2189 -40.0911 -39.2872 -39.2299 -20.9471 -20.5292 -19.5374  -8.7975
    -8.2814  -7.8330  -7.6804  -6.5385  -5.6207  -5.1880  -5.0900  -4.3318
    -0.9060  -0.1340   0.7756   2.3862

     occupation numbers 
     1.0000   1.0000   1.0000   1.0000   1.0000   1.0000   1.0000   1.0000
     1.0000   1.0000   1.0000   1.0000   1.0000   1.0000   1.0000   1.0000
     0.0000   0.0000   0.0000   0.0000

          k = 0.3333-0.1430 0.1785 (  8144 PWs)   bands (ev):

   -65.2181 -40.0895 -39.3190 -39.2283 -20.7104 -20.5106 -19.5268  -8.8492
    -8.7519  -7.7901  -7.4313  -7.1330  -5.8640  -5.3221  -4.4616  -4.1744
    -0.8372  -0.1797   0.0683   2.5440

     occupation numbers 
     1.0000   1.0000   1.0000   1.0000   1.0000   1.0000   1.0000   1.0000
     1.0000   1.0000   1.0000   1.0000   1.0000   1.0000   1.0000   1.0000
     0.0000   0.0000   0.0000   0.0000

          k = 0.3333-0.1430 0.3571 (  8190 PWs)   bands (ev):

   -65.2164 -40.0863 -39.3818 -39.2253 -20.5253 -20.1435 -19.5091  -9.3209
    -8.7053  -8.0921  -7.7295  -7.2190  -6.9022  -5.0131  -4.3630  -3.6634
    -0.7985  -0.1383   0.1634   2.3315

     occupation numbers 
     1.0000   1.0000   1.0000   1.0000   1.0000   1.0000   1.0000   1.0000
     1.0000   1.0000   1.0000   1.0000   1.0000   1.0000   1.0000   1.0001
     0.0000   0.0000   0.0000   0.0000

          k = 0.3333-0.1430-0.5356 (  8204 PWs)   bands (ev):

   -65.2156 -40.0846 -39.4127 -39.2238 -20.5137 -19.8471 -19.5088  -9.4127
    -8.6019  -8.4840  -7.7944  -7.7043  -6.9640  -4.9394  -4.3650  -3.5256
    -0.4340  -0.3566   0.5807   2.0207

     occupation numbers 
     1.0000   1.0000   1.0000   1.0000   1.0000   1.0000   1.0000   1.0000
     1.0000   1.0000   1.0000   1.0000   1.0000   1.0000   1.0000   1.0016
     0.0000   0.0000   0.0000   0.0000

          k =-0.5000 0.0000 0.0000 (  8140 PWs)   bands (ev):

   -65.2186 -40.0907 -39.2866 -39.2442 -20.9310 -20.5256 -19.3177  -9.1446
    -8.2711  -8.1604  -7.7457  -6.6879  -5.6196  -5.2984  -5.1580  -4.2650
    -0.4760   0.2265   0.7822   2.4372

     occupation numbers 
     1.0000   1.0000   1.0000   1.0000   1.0000   1.0000   1.0000   1.0000
     1.0000   1.0000   1.0000   1.0000   1.0000   1.0000   1.0000   1.0000
     0.0000   0.0000   0.0000   0.0000

          k =-0.5000 0.0000 0.1785 (  8140 PWs)   bands (ev):

   -65.2178 -40.0891 -39.3185 -39.2425 -20.6934 -20.5081 -19.3059  -9.1568
    -8.7873  -8.1354  -7.4810  -7.3129  -5.9205  -5.2951  -4.5056  -4.1091
    -0.4281  -0.0237   0.2560   2.4890

     occupation numbers 
     1.0000   1.0000   1.0000   1.0000   1.0000   1.0000   1.0000   1.0000
     1.0000   1.0000   1.0000   1.0000   1.0000   1.0000   1.0000   1.0000
     0.0000   0.0000   0.0000   0.0000

          k =-0.5000 0.0000 0.3571 (  8162 PWs)   bands (ev):

   -65.2161 -40.0859 -39.3811 -39.2394 -20.5189 -20.1325 -19.2843  -9.3687
    -9.0114  -8.2466  -8.0632  -7.2934  -6.9898  -4.9897  -4.3283  -3.4740
    -0.5762   0.1420   0.2623   2.2054

     occupation numbers 
     1.0000   1.0000   1.0000   1.0000   1.0000   1.0000   1.0000   1.0000
     1.0000   1.0000   1.0000   1.0000   1.0000   1.0000   1.0000   1.0035
     0.0000   0.0000   0.0000   0.0000

          k =-0.5000 0.0000-0.5356 (  8212 PWs)   bands (ev):

   -65.2153 -40.0842 -39.4121 -39.2380 -20.5082 -19.8414 -19.2766  -9.4444
    -8.9515  -8.5883  -8.0232  -7.9231  -7.0454  -4.9300  -4.3024  -3.2439
    -0.3075  -0.0343   0.6437   1.8853

     occupation numbers 
     1.0000   1.0000   1.0000   1.0000   1.0000   1.0000   1.0000   1.0000
     1.0000   1.0000   1.0000   1.0000   1.0000   1.0000   1.0000   1.0459
     0.0000   0.0000   0.0000   0.0000

          k =-0.5000-0.1430 0.0000 (  8120 PWs)   bands (ev):

   -65.2186 -40.0907 -39.2866 -39.2442 -20.9310 -20.5256 -19.3176  -9.1446
    -8.2711  -8.1604  -7.7457  -6.6879  -5.6196  -5.2984  -5.1580  -4.2650
    -0.4760   0.2265   0.7822   2.4378

     occupation numbers 
     1.0000   1.0000   1.0000   1.0000   1.0000   1.0000   1.0000   1.0000
     1.0000   1.0000   1.0000   1.0000   1.0000   1.0000   1.0000   1.0000
     0.0000   0.0000   0.0000   0.0000

          k =-0.5000-0.1430 0.1785 (  8160 PWs)   bands (ev):

   -65.2178 -40.0891 -39.3185 -39.2425 -20.6934 -20.5081 -19.3059  -9.1568
    -8.7873  -8.1354  -7.4810  -7.3129  -5.9205  -5.2951  -4.5056  -4.1091
    -0.4281  -0.0237   0.2560   2.4894

     occupation numbers 
     1.0000   1.0000   1.0000   1.0000   1.0000   1.0000   1.0000   1.0000
     1.0000   1.0000   1.0000   1.0000   1.0000   1.0000   1.0000   1.0000
     0.0000   0.0000   0.0000   0.0000

          k =-0.5000-0.1430 0.3571 (  8188 PWs)   bands (ev):

   -65.2162 -40.0859 -39.3811 -39.2394 -20.5189 -20.1325 -19.2843  -9.3687
    -9.0114  -8.2466  -8.0632  -7.2934  -6.9898  -4.9897  -4.3283  -3.4740
    -0.5762   0.1420   0.2623   2.2055

     occupation numbers 
     1.0000   1.0000   1.0000   1.0000   1.0000   1.0000   1.0000   1.0000
     1.0000   1.0000   1.0000   1.0000   1.0000   1.0000   1.0000   1.0035
     0.0000   0.0000   0.0000   0.0000

          k =-0.5000-0.1430-0.5356 (  8192 PWs)   bands (ev):

   -65.2153 -40.0842 -39.4121 -39.2380 -20.5082 -19.8414 -19.2766  -9.4444
    -8.9515  -8.5883  -8.0232  -7.9231  -7.0454  -4.9300  -4.3024  -3.2439
    -0.3075  -0.0343   0.6437   1.8853

     occupation numbers 
     1.0000   1.0000   1.0000   1.0000   1.0000   1.0000   1.0000   1.0000
     1.0000   1.0000   1.0000   1.0000   1.0000   1.0000   1.0000   1.0459
     0.0000   0.0000   0.0000   0.0000

     the Fermi energy is    -2.7138 ev

     WARNING: integrated charge=    32.00540417, expected=    32.00000000

!    total energy              =    -260.71289601 Ry
     estimated scf accuracy    <          2.4E-09 Ry
     smearing contrib. (-TS)   =       0.00010239 Ry
     internal energy E=F+TS    =    -260.71299840 Ry

     The total energy is F=E-TS. E is the sum of the following terms:
     one-electron contribution =    -791.46877012 Ry
     hartree contribution      =     397.28118365 Ry
     xc contribution           =     -37.10580390 Ry
     ewald contribution        =     197.92587100 Ry
     one-center paw contrib.   =     -27.34547903 Ry
      -> PAW hartree energy AE =      78.92788678 Ry
      -> PAW hartree energy PS =     -78.56064946 Ry
      -> PAW xc energy AE      =     -48.69350450 Ry
      -> PAW xc energy PS      =      20.98078814 Ry
      -> total E_H with PAW    =     397.64842097 Ry
      -> total E_XC with PAW   =     -64.81852025 Ry

     convergence has been achieved in  10 iterations

     negative rho (up, down):  1.301E-04 0.000E+00

     Forces acting on atoms (cartesian axes, Ry/au):

     atom    1 type  1   force =     0.04328515    0.13942589    0.00000000
     atom    2 type  2   force =     0.01322273    0.00871185    0.00000000
     atom    3 type  2   force =    -0.06857612   -0.00551464    0.00000000
     atom    4 type  2   force =     0.01206824   -0.14262310    0.00000000
     The non-local contrib.  to forces
     atom    1 type  1   force =     0.00789429   -0.15248749    0.00000000
     atom    2 type  2   force =     0.18126444   -0.41083531    0.00000000
     atom    3 type  2   force =    -0.24826767   -0.21390954    0.00000000
     atom    4 type  2   force =     0.30985821    1.46240892    0.00000000
     The ionic contribution  to forces
     atom    1 type  1   force =     1.70406580   11.85302979    0.00000000
     atom    2 type  2   force =    -1.34866761   14.44456848   -0.00000000
     atom    3 type  2   force =     1.60432568    9.44518864   -0.00000000
     atom    4 type  2   force =    -1.95972388  -35.74278691   -0.00000000
     The local contribution  to forces
     atom    1 type  1   force =    -1.66867749  -11.56122077    0.00000000
     atom    2 type  2   force =     1.18192703  -14.02797561    0.00000000
     atom    3 type  2   force =    -1.42589273   -9.23840839    0.00000000
     atom    4 type  2   force =     1.66404451   34.14474975    0.00000000
     The core correction contribution to forces
     atom    1 type  1   force =     0.00000000    0.00000000    0.00000000
     atom    2 type  2   force =    -0.00129596    0.00296110    0.00000000
     atom    3 type  2   force =     0.00124641    0.00161430    0.00000000
     atom    4 type  2   force =    -0.00211187   -0.00696728    0.00000000
     The Hubbard contrib.    to forces
     atom    1 type  1   force =     0.00000000    0.00000000    0.00000000
     atom    2 type  2   force =     0.00000000    0.00000000    0.00000000
     atom    3 type  2   force =     0.00000000    0.00000000    0.00000000
     atom    4 type  2   force =     0.00000000    0.00000000    0.00000000
     The SCF correction term to forces
     atom    1 type  1   force =     0.00000330    0.00009786   -0.00000000
     atom    2 type  2   force =    -0.00000442   -0.00001332   -0.00000000
     atom    3 type  2   force =     0.00001294   -0.00000616    0.00000000
     atom    4 type  2   force =     0.00000202   -0.00003408   -0.00000000

     Total force =     0.216296     Total SCF correction =     0.000106


     Computing stress (Cartesian axis) and pressure


     negative rho (up, down):  1.301E-04 0.000E+00
          total   stress  (Ry/bohr**3)                   (kbar)     P=      -10.40
  -0.00039148  -0.00004571   0.00000000          -57.59       -6.72        0.00
  -0.00004571   0.00031560   0.00000000           -6.72       46.43        0.00
   0.00000000   0.00000000  -0.00013618            0.00        0.00      -20.03

     kinetic stress (kbar)   6529.90    -12.47      0.00
                              -12.47   6623.94      0.00
                                0.00      0.00   6514.55

     local   stress (kbar) -76053.32   -837.52     -0.00
                             -837.52  67403.20      0.00
                               -0.00      0.00 -77160.32

     nonloc. stress (kbar)   1988.16     -6.80      0.00
                               -6.80   1952.77      0.00
                                0.00      0.00   1989.20

     hartree stress (kbar)  37311.39    249.23     -0.00
                              249.23 -32363.74     -0.00
                               -0.00     -0.00  37706.35

     exc-cor stress (kbar)  -1103.53      0.80     -0.00
                                0.80  -1105.85     -0.00
                               -0.00     -0.00  -1103.48

     corecor stress (kbar)   -136.77     -0.02     -0.00
                               -0.02   -137.19      0.00
                               -0.00      0.00   -136.72

     ewald   stress (kbar)  31406.58    600.06     -0.00
                              600.06 -42326.71     -0.00
                               -0.00     -0.00  32170.39

     hubbard stress (kbar)      0.00      0.00      0.00
                                0.00      0.00      0.00
                                0.00      0.00      0.00

     DFT-D   stress (kbar)      0.00      0.00      0.00
                                0.00      0.00      0.00
                                0.00      0.00      0.00

     XDM     stress (kbar)      0.00      0.00      0.00
                                0.00      0.00      0.00
                                0.00      0.00      0.00

     dft-nl  stress (kbar)      0.00      0.00      0.00
                                0.00      0.00      0.00
                                0.00      0.00      0.00

     TS-vdW  stress (kbar)      0.00      0.00      0.00
                                0.00      0.00      0.00
                                0.00      0.00      0.00

     MDB     stress (kbar)      0.00      0.00      0.00
                                0.00      0.00      0.00
                                0.00      0.00      0.00

     3D-RISM stress (kbar)      0.00      0.00      0.00
                                0.00      0.00      0.00
                                0.00      0.00      0.00

     Energy error            =      7.2E-03 Ry
     Gradient error          =      1.4E-01 Ry/Bohr

     number of scf cycles    =   2
     number of bfgs steps    =   1

     energy             old  =    -260.7056658711 Ry
     energy             new  =    -260.7128960085 Ry

     CASE: energy            _new < energy            _old

     new trust radius        =       0.0804224700 bohr
     new conv_thr            =       0.0000000100 Ry


ATOMIC_POSITIONS (crystal)
Mo               0.5811810403        0.3948635058        0.7500000000
O                0.5321478955        0.4277610398        0.2500000000
O                0.0435919517        0.4147716921        0.7500000000
O                0.5200791125        0.2766037623        0.7500000000



     Writing config-only to output data dir ./out/aiida.save/ :
     XML data file
     NEW-OLD atomic charge density approx. for the potential

     Check: negative core charge=   -0.000001

     negative rho (up, down):  1.287E-04 0.000E+00
     extrapolated charge   32.00540, renormalised to   32.00000

     total cpu time spent up to now is      213.8 secs

     Self-consistent Calculation

     iteration #  1     ecut=    50.00 Ry     beta= 0.30
     Davidson diagonalization with overlap

---- Real-time Memory Report at c_bands before calling an iterative solver
           327 MiB given to the printing process from OS
             0 MiB allocation reported by mallinfo(arena+hblkhd)
         26139 MiB available memory on the node where the printing process lives
------------------
     ethr =  1.00E-06,  avg # of iterations = 11.9

     negative rho (up, down):  1.267E-04 0.000E+00

     total cpu time spent up to now is      234.2 secs

     WARNING: integrated charge=    32.00017918, expected=    32.00000000

     total energy              =    -260.72502385 Ry
     estimated scf accuracy    <       0.00570943 Ry

     iteration #  2     ecut=    50.00 Ry     beta= 0.30
     Davidson diagonalization with overlap

---- Real-time Memory Report at c_bands before calling an iterative solver
           327 MiB given to the printing process from OS
             0 MiB allocation reported by mallinfo(arena+hblkhd)
         26129 MiB available memory on the node where the printing process lives
------------------
     ethr =  1.78E-05,  avg # of iterations =  2.0

     negative rho (up, down):  1.261E-04 0.000E+00

     total cpu time spent up to now is      241.9 secs

     WARNING: integrated charge=    32.00020253, expected=    32.00000000

     total energy              =    -260.72551313 Ry
     estimated scf accuracy    <       0.00565494 Ry

     iteration #  3     ecut=    50.00 Ry     beta= 0.30
     Davidson diagonalization with overlap

---- Real-time Memory Report at c_bands before calling an iterative solver
           327 MiB given to the printing process from OS
             0 MiB allocation reported by mallinfo(arena+hblkhd)
         26107 MiB available memory on the node where the printing process lives
------------------
     ethr =  1.77E-05,  avg # of iterations =  1.0

     negative rho (up, down):  1.264E-04 0.000E+00

     total cpu time spent up to now is      249.0 secs

     WARNING: integrated charge=    32.00032001, expected=    32.00000000

     total energy              =    -260.72595565 Ry
     estimated scf accuracy    <       0.00047109 Ry

     iteration #  4     ecut=    50.00 Ry     beta= 0.30
     Davidson diagonalization with overlap

---- Real-time Memory Report at c_bands before calling an iterative solver
           327 MiB given to the printing process from OS
             0 MiB allocation reported by mallinfo(arena+hblkhd)
         26141 MiB available memory on the node where the printing process lives
------------------
     ethr =  1.47E-06,  avg # of iterations =  2.0

     negative rho (up, down):  1.268E-04 0.000E+00

     total cpu time spent up to now is      257.3 secs

     WARNING: integrated charge=    32.00038767, expected=    32.00000000

     total energy              =    -260.72600983 Ry
     estimated scf accuracy    <       0.00011278 Ry

     iteration #  5     ecut=    50.00 Ry     beta= 0.30
     Davidson diagonalization with overlap

---- Real-time Memory Report at c_bands before calling an iterative solver
           327 MiB given to the printing process from OS
             0 MiB allocation reported by mallinfo(arena+hblkhd)
         26106 MiB available memory on the node where the printing process lives
------------------
     ethr =  3.52E-07,  avg # of iterations =  1.6

     negative rho (up, down):  1.280E-04 0.000E+00

     total cpu time spent up to now is      264.6 secs

     WARNING: integrated charge=    32.00044792, expected=    32.00000000

     total energy              =    -260.72600533 Ry
     estimated scf accuracy    <       0.00001900 Ry

     iteration #  6     ecut=    50.00 Ry     beta= 0.30
     Davidson diagonalization with overlap

---- Real-time Memory Report at c_bands before calling an iterative solver
           327 MiB given to the printing process from OS
             0 MiB allocation reported by mallinfo(arena+hblkhd)
         26117 MiB available memory on the node where the printing process lives
------------------
     ethr =  5.94E-08,  avg # of iterations =  2.0

     negative rho (up, down):  1.282E-04 0.000E+00

     total cpu time spent up to now is      272.5 secs

     WARNING: integrated charge=    32.00046385, expected=    32.00000000

     total energy              =    -260.72600353 Ry
     estimated scf accuracy    <       0.00000634 Ry

     iteration #  7     ecut=    50.00 Ry     beta= 0.30
     Davidson diagonalization with overlap

---- Real-time Memory Report at c_bands before calling an iterative solver
           327 MiB given to the printing process from OS
             0 MiB allocation reported by mallinfo(arena+hblkhd)
         26123 MiB available memory on the node where the printing process lives
------------------
     ethr =  1.98E-08,  avg # of iterations =  1.4

     negative rho (up, down):  1.282E-04 0.000E+00

     total cpu time spent up to now is      279.7 secs

     WARNING: integrated charge=    32.00047148, expected=    32.00000000

     total energy              =    -260.72600642 Ry
     estimated scf accuracy    <       0.00000051 Ry

     iteration #  8     ecut=    50.00 Ry     beta= 0.30
[...]
     0.0000   0.0000   0.0000   0.0000

          k = 0.3333 0.0000 0.3571 (  8187 PWs)   bands (ev):

   -65.2160 -39.7854 -39.5075 -39.4012 -20.3269 -20.1981 -20.0927  -9.4012
    -8.8265  -8.2885  -7.6757  -6.9462  -6.7015  -5.0023  -4.7687  -4.1872
    -0.9791  -0.2837   0.1139   1.9974

     occupation numbers 
     1.0000   1.0000   1.0000   1.0000   1.0000   1.0000   1.0000   1.0000
     1.0000   1.0000   1.0000   1.0000   1.0000   1.0000   1.0000   1.0000
     0.0000   0.0000   0.0000   0.0000

          k = 0.3333 0.0000-0.5356 (  8186 PWs)   bands (ev):

   -65.2152 -39.7837 -39.5056 -39.4324 -20.2538 -20.0994 -19.9707  -9.5308
    -8.7032  -8.6096  -7.6565  -7.6293  -6.6506  -4.8850  -4.7746  -4.0605
    -0.6335  -0.6046   0.5170   1.7043

     occupation numbers 
     1.0000   1.0000   1.0000   1.0000   1.0000   1.0000   1.0000   1.0000
     1.0000   1.0000   1.0000   1.0000   1.0000   1.0000   1.0000   1.0000
     0.0000   0.0000   0.0000   0.0000

          k = 0.3333-0.1430 0.0000 (  8170 PWs)   bands (ev):

   -65.2185 -39.7900 -39.5121 -39.3076 -21.0244 -20.2711 -20.1237  -9.0937
    -8.0676  -7.8240  -7.4232  -6.9319  -5.6491  -5.3251  -5.3245  -4.7197
    -0.7586  -0.2347   0.5970   2.2415

     occupation numbers 
     1.0000   1.0000   1.0000   1.0000   1.0000   1.0000   1.0000   1.0000
     1.0000   1.0000   1.0000   1.0000   1.0000   1.0000   1.0000   1.0000
     0.0000   0.0000   0.0000   0.0000

          k = 0.3333-0.1430 0.1785 (  8144 PWs)   bands (ev):

   -65.2177 -39.7885 -39.5107 -39.3390 -20.7894 -20.2591 -20.1149  -9.1250
    -8.6400  -7.7662  -7.5229  -6.9969  -5.7972  -5.3659  -4.9191  -4.5865
    -0.6965  -0.3305  -0.0908   2.2550

     occupation numbers 
     1.0000   1.0000   1.0000   1.0000   1.0000   1.0000   1.0000   1.0000
     1.0000   1.0000   1.0000   1.0000   1.0000   1.0000   1.0000   1.0000
     0.0000   0.0000   0.0000   0.0000

          k = 0.3333-0.1430 0.3571 (  8190 PWs)   bands (ev):

   -65.2160 -39.7854 -39.5075 -39.4012 -20.3269 -20.1981 -20.0927  -9.4012
    -8.8265  -8.2885  -7.6757  -6.9462  -6.7015  -5.0023  -4.7687  -4.1872
    -0.9791  -0.2837   0.1139   1.9976

     occupation numbers 
     1.0000   1.0000   1.0000   1.0000   1.0000   1.0000   1.0000   1.0000
     1.0000   1.0000   1.0000   1.0000   1.0000   1.0000   1.0000   1.0000
     0.0000   0.0000   0.0000   0.0000

          k = 0.3333-0.1430-0.5356 (  8204 PWs)   bands (ev):

   -65.2152 -39.7837 -39.5056 -39.4324 -20.2538 -20.0994 -19.9707  -9.5308
    -8.7032  -8.6096  -7.6565  -7.6293  -6.6507  -4.8850  -4.7746  -4.0605
    -0.6335  -0.6046   0.5170   1.7043

     occupation numbers 
     1.0000   1.0000   1.0000   1.0000   1.0000   1.0000   1.0000   1.0000
     1.0000   1.0000   1.0000   1.0000   1.0000   1.0000   1.0000   1.0000
     0.0000   0.0000   0.0000   0.0000

          k =-0.5000 0.0000 0.0000 (  8140 PWs)   bands (ev):

   -65.2183 -39.7914 -39.5247 -39.3070 -21.0053 -20.1914 -19.9935  -9.5397
    -8.0967  -8.0690  -7.4759  -7.1151  -5.6393  -5.3787  -5.2858  -4.6237
    -0.3940   0.0558   0.6106   2.2698

     occupation numbers 
     1.0000   1.0000   1.0000   1.0000   1.0000   1.0000   1.0000   1.0000
     1.0000   1.0000   1.0000   1.0000   1.0000   1.0000   1.0000   1.0000
     0.0000   0.0000   0.0000   0.0000

          k =-0.5000 0.0000 0.1785 (  8140 PWs)   bands (ev):

   -65.2174 -39.7899 -39.5232 -39.3384 -20.7678 -20.1832 -19.9833  -9.5528
    -8.6347  -8.0905  -7.7006  -7.0455  -5.7855  -5.3433  -4.8730  -4.5074
    -0.3690  -0.2058   0.0895   2.2106

     occupation numbers 
     1.0000   1.0000   1.0000   1.0000   1.0000   1.0000   1.0000   1.0000
     1.0000   1.0000   1.0000   1.0000   1.0000   1.0000   1.0000   1.0000
     0.0000   0.0000   0.0000   0.0000

          k =-0.5000 0.0000 0.3571 (  8162 PWs)   bands (ev):

   -65.2158 -39.7868 -39.5199 -39.4006 -20.2618 -20.1636 -19.9630  -9.6190
    -9.0243  -8.5211  -7.9716  -6.9363  -6.7700  -4.9691  -4.6811  -3.9881
    -0.8188  -0.0574   0.2344   1.9035

     occupation numbers 
     1.0000   1.0000   1.0000   1.0000   1.0000   1.0000   1.0000   1.0000
     1.0000   1.0000   1.0000   1.0000   1.0000   1.0000   1.0000   1.0000
     0.0000   0.0000   0.0000   0.0000

          k =-0.5000 0.0000-0.5356 (  8212 PWs)   bands (ev):

   -65.2149 -39.7852 -39.5180 -39.4317 -20.1619 -19.9674 -19.9653  -9.6445
    -9.0418  -8.8262  -7.9434  -7.6344  -6.7069  -4.8737  -4.6560  -3.7786
    -0.5282  -0.3680   0.6015   1.6060

     occupation numbers 
     1.0000   1.0000   1.0000   1.0000   1.0000   1.0000   1.0000   1.0000
     1.0000   1.0000   1.0000   1.0000   1.0000   1.0000   1.0000   1.0000
     0.0000   0.0000   0.0000   0.0000

          k =-0.5000-0.1430 0.0000 (  8120 PWs)   bands (ev):

   -65.2183 -39.7914 -39.5247 -39.3070 -21.0053 -20.1914 -19.9935  -9.5397
    -8.0967  -8.0690  -7.4759  -7.1151  -5.6393  -5.3787  -5.2858  -4.6237
    -0.3940   0.0558   0.6106   2.2704

     occupation numbers 
     1.0000   1.0000   1.0000   1.0000   1.0000   1.0000   1.0000   1.0000
     1.0000   1.0000   1.0000   1.0000   1.0000   1.0000   1.0000   1.0000
     0.0000   0.0000   0.0000   0.0000

          k =-0.5000-0.1430 0.1785 (  8160 PWs)   bands (ev):

   -65.2174 -39.7899 -39.5232 -39.3384 -20.7679 -20.1832 -19.9833  -9.5528
    -8.6347  -8.0905  -7.7006  -7.0455  -5.7855  -5.3433  -4.8730  -4.5074
    -0.3690  -0.2058   0.0895   2.2109

     occupation numbers 
     1.0000   1.0000   1.0000   1.0000   1.0000   1.0000   1.0000   1.0000
     1.0000   1.0000   1.0000   1.0000   1.0000   1.0000   1.0000   1.0000
     0.0000   0.0000   0.0000   0.0000

          k =-0.5000-0.1430 0.3571 (  8188 PWs)   bands (ev):

   -65.2158 -39.7868 -39.5199 -39.4006 -20.2618 -20.1636 -19.9630  -9.6190
    -9.0243  -8.5211  -7.9716  -6.9363  -6.7700  -4.9691  -4.6811  -3.9881
    -0.8188  -0.0574   0.2344   1.9036

     occupation numbers 
     1.0000   1.0000   1.0000   1.0000   1.0000   1.0000   1.0000   1.0000
     1.0000   1.0000   1.0000   1.0000   1.0000   1.0000   1.0000   1.0000
     0.0000   0.0000   0.0000   0.0000

          k =-0.5000-0.1430-0.5356 (  8192 PWs)   bands (ev):

   -65.2149 -39.7852 -39.5180 -39.4317 -20.1619 -19.9674 -19.9653  -9.6445
    -9.0418  -8.8262  -7.9434  -7.6344  -6.7069  -4.8737  -4.6560  -3.7786
    -0.5282  -0.3680   0.6015   1.6060

     occupation numbers 
     1.0000   1.0000   1.0000   1.0000   1.0000   1.0000   1.0000   1.0000
     1.0000   1.0000   1.0000   1.0000   1.0000   1.0000   1.0000   1.0000
     0.0000   0.0000   0.0000   0.0000

     the Fermi energy is    -2.6568 ev

!    total energy              =    -260.72941983 Ry
     estimated scf accuracy    <          8.1E-09 Ry
     smearing contrib. (-TS)   =       0.00000000 Ry
     internal energy E=F+TS    =    -260.72941983 Ry

     The total energy is F=E-TS. E is the sum of the following terms:
     one-electron contribution =    -784.51733682 Ry
     hartree contribution      =     393.70098130 Ry
     xc contribution           =     -37.09836240 Ry
     ewald contribution        =     194.53265525 Ry
     one-center paw contrib.   =     -27.34735716 Ry
      -> PAW hartree energy AE =      78.75823597 Ry
      -> PAW hartree energy PS =     -78.39297493 Ry
      -> PAW xc energy AE      =     -48.66647189 Ry
      -> PAW xc energy PS      =      20.95385369 Ry
      -> total E_H with PAW    =     394.06624234 Ry
      -> total E_XC with PAW   =     -64.81098060 Ry

     convergence has been achieved in   9 iterations

     negative rho (up, down):  1.283E-04 0.000E+00

     Forces acting on atoms (cartesian axes, Ry/au):

     atom    1 type  1   force =    -0.04387165   -0.01374267    0.00000000
     atom    2 type  2   force =    -0.01522476    0.00955565    0.00000000
     atom    3 type  2   force =     0.03941240    0.00137642    0.00000000
     atom    4 type  2   force =     0.01968401    0.00281060    0.00000000
     The non-local contrib.  to forces
     atom    1 type  1   force =     0.01822121   -0.11155428    0.00000000
     atom    2 type  2   force =     0.12572974   -0.39266395    0.00000000
     atom    3 type  2   force =    -0.58751281   -0.21459571    0.00000000
     atom    4 type  2   force =     0.25637211    1.47046540    0.00000000
     The ionic contribution  to forces
     atom    1 type  1   force =    -2.70212060   10.33500691    0.00000000
     atom    2 type  2   force =    -2.06880081   14.64282668   -0.00000000
     atom    3 type  2   force =     6.67993858    9.38390032   -0.00000000
     atom    4 type  2   force =    -1.90901718  -34.36173391    0.00000000
     The local contribution  to forces
     atom    1 type  1   force =     2.64004636  -10.23682754    0.00000000
     atom    2 type  2   force =     1.92840776  -14.24330684    0.00000000
     atom    3 type  2   force =    -6.05484891   -9.16921874    0.00000000
     atom    4 type  2   force =     1.67428310   32.90299315    0.00000000
     The core correction contribution to forces
     atom    1 type  1   force =     0.00000000    0.00000000    0.00000000
     atom    2 type  2   force =    -0.00057955    0.00277243   -0.00000000
     atom    3 type  2   force =     0.00182069    0.00137490    0.00000000
     atom    4 type  2   force =    -0.00192028   -0.00901984    0.00000000
     The Hubbard contrib.    to forces
     atom    1 type  1   force =     0.00000000    0.00000000    0.00000000
     atom    2 type  2   force =     0.00000000    0.00000000    0.00000000
     atom    3 type  2   force =     0.00000000    0.00000000    0.00000000
     atom    4 type  2   force =     0.00000000    0.00000000    0.00000000
     The SCF correction term to forces
     atom    1 type  1   force =    -0.00002035   -0.00037444   -0.00000000
     atom    2 type  2   force =     0.00001637   -0.00007936    0.00000000
     atom    3 type  2   force =     0.00001312   -0.00009103    0.00000000
     atom    4 type  2   force =    -0.00003548    0.00009912   -0.00000000

     Total force =     0.066237     Total SCF correction =     0.000408


     Computing stress (Cartesian axis) and pressure


     negative rho (up, down):  1.283E-04 0.000E+00
          total   stress  (Ry/bohr**3)                   (kbar)     P=      -11.41
  -0.00005788  -0.00003990   0.00000000           -8.52       -5.87        0.00
  -0.00003990  -0.00000144   0.00000000           -5.87       -0.21        0.00
   0.00000000   0.00000000  -0.00017347            0.00        0.00      -25.52

     kinetic stress (kbar)   6560.08    -14.53      0.00
                              -14.53   6610.21      0.00
                                0.00      0.00   6499.31

     local   stress (kbar) -75478.08  -1186.67     -0.00
                            -1186.67  66739.91      0.00
                               -0.00      0.00 -76327.96

     nonloc. stress (kbar)   1980.06     -7.35      0.00
                               -7.35   1959.33      0.00
                                0.00      0.00   1990.28

     hartree stress (kbar)  36906.06    381.80     -0.00
                              381.80 -31934.43      0.00
                               -0.00      0.00  37297.98

     exc-cor stress (kbar)  -1103.23      1.05     -0.00
                                1.05  -1105.74     -0.00
                               -0.00     -0.00  -1103.36

     corecor stress (kbar)   -136.91      0.01      0.00
                                0.01   -137.06      0.00
                                0.00      0.00   -136.65

     ewald   stress (kbar)  31263.50    819.83     -0.00
                              819.83 -42132.43     -0.00
                               -0.00     -0.00  31754.88

     hubbard stress (kbar)      0.00      0.00      0.00
                                0.00      0.00      0.00
                                0.00      0.00      0.00

     DFT-D   stress (kbar)      0.00      0.00      0.00
                                0.00      0.00      0.00
                                0.00      0.00      0.00

     XDM     stress (kbar)      0.00      0.00      0.00
                                0.00      0.00      0.00
                                0.00      0.00      0.00

     dft-nl  stress (kbar)      0.00      0.00      0.00
                                0.00      0.00      0.00
                                0.00      0.00      0.00

     TS-vdW  stress (kbar)      0.00      0.00      0.00
                                0.00      0.00      0.00
                                0.00      0.00      0.00

     MDB     stress (kbar)      0.00      0.00      0.00
                                0.00      0.00      0.00
                                0.00      0.00      0.00

     3D-RISM stress (kbar)      0.00      0.00      0.00
                                0.00      0.00      0.00
                                0.00      0.00      0.00

     Energy error            =      3.4E-03 Ry
     Gradient error          =      4.4E-02 Ry/Bohr

     number of scf cycles    =   4
     number of bfgs steps    =   3

     energy             old  =    -260.7260066527 Ry
     energy             new  =    -260.7294198265 Ry

     CASE: energy            _new < energy            _old

     new trust radius        =       0.0495655529 bohr
     new conv_thr            =       0.0000000085 Ry


ATOMIC_POSITIONS (crystal)
Mo               0.5845991080        0.3947191655        0.7500000000
O                0.5327943574        0.4292141354        0.2500000000
O                0.0305406367        0.4148513269        0.7500000000
O                0.5290658979        0.2752153723        0.7500000000



     Writing config-only to output data dir ./out/aiida.save/ :
     XML data file
     NEW-OLD atomic charge density approx. for the potential

     Check: negative core charge=   -0.000001

     negative rho (up, down):  1.313E-04 0.000E+00

     total cpu time spent up to now is      406.1 secs

     Self-consistent Calculation

     iteration #  1     ecut=    50.00 Ry     beta= 0.30
     Davidson diagonalization with overlap

---- Real-time Memory Report at c_bands before calling an iterative solver
           327 MiB given to the printing process from OS
             0 MiB allocation reported by mallinfo(arena+hblkhd)
         26126 MiB available memory on the node where the printing process lives
------------------
     ethr =  1.00E-06,  avg # of iterations =  8.0

     negative rho (up, down):  1.306E-04 0.000E+00

     total cpu time spent up to now is      424.2 secs

     total energy              =    -260.73090577 Ry
     estimated scf accuracy    <       0.00167120 Ry

     iteration #  2     ecut=    50.00 Ry     beta= 0.30
     Davidson diagonalization with overlap

---- Real-time Memory Report at c_bands before calling an iterative solver
           327 MiB given to the printing process from OS
             0 MiB allocation reported by mallinfo(arena+hblkhd)
         26122 MiB available memory on the node where the printing process lives
------------------
     ethr =  5.22E-06,  avg # of iterations =  2.0

     negative rho (up, down):  1.300E-04 0.000E+00

     total cpu time spent up to now is      431.9 secs

     WARNING: integrated charge=    32.00000617, expected=    32.00000000

     total energy              =    -260.73114809 Ry
     estimated scf accuracy    <       0.00082684 Ry

     iteration #  3     ecut=    50.00 Ry     beta= 0.30
     Davidson diagonalization with overlap

---- Real-time Memory Report at c_bands before calling an iterative solver
           327 MiB given to the printing process from OS
             0 MiB allocation reported by mallinfo(arena+hblkhd)
         26133 MiB available memory on the node where the printing process lives
------------------
     ethr =  2.58E-06,  avg # of iterations =  1.5

     negative rho (up, down):  1.297E-04 0.000E+00

     total cpu time spent up to now is      439.1 secs

     WARNING: integrated charge=    32.00000891, expected=    32.00000000

     total energy              =    -260.73120495 Ry
     estimated scf accuracy    <       0.00016279 Ry

     iteration #  4     ecut=    50.00 Ry     beta= 0.30
     Davidson diagonalization with overlap

---- Real-time Memory Report at c_bands before calling an iterative solver
           327 MiB given to the printing process from OS
             0 MiB allocation reported by mallinfo(arena+hblkhd)
         26132 MiB available memory on the node where the printing process lives
------------------
     ethr =  5.09E-07,  avg # of iterations =  1.9

     negative rho (up, down):  1.296E-04 0.000E+00

     total cpu time spent up to now is      446.6 secs

     WARNING: integrated charge=    32.00001230, expected=    32.00000000

     total energy              =    -260.73120810 Ry
     estimated scf accuracy    <       0.00006065 Ry

     iteration #  5     ecut=    50.00 Ry     beta= 0.30
     Davidson diagonalization with overlap

---- Real-time Memory Report at c_bands before calling an iterative solver
           327 MiB given to the printing process from OS
             0 MiB allocation reported by mallinfo(arena+hblkhd)
         26109 MiB available memory on the node where the printing process lives
------------------
     ethr =  1.90E-07,  avg # of iterations =  2.0

     negative rho (up, down):  1.295E-04 0.000E+00

     total cpu time spent up to now is      454.3 secs

     WARNING: integrated charge=    32.00001353, expected=    32.00000000

     total energy              =    -260.73121401 Ry
     estimated scf accuracy    <       0.00000413 Ry

     iteration #  6     ecut=    50.00 Ry     beta= 0.30
     Davidson diagonalization with overlap

---- Real-time Memory Report at c_bands before calling an iterative solver
           327 MiB given to the printing process from OS
             0 MiB allocation reported by mallinfo(arena+hblkhd)
         26112 MiB available memory on the node where the printing process lives
------------------
     ethr =  1.29E-08,  avg # of iterations =  3.1

     negative rho (up, down):  1.294E-04 0.000E+00

     total cpu time spent up to now is      463.0 secs

     WARNING: integrated charge=    32.00001403, expected=    32.00000000

     total energy              =    -260.73121489 Ry
     estimated scf accuracy    <       0.00000158 Ry

     iteration #  7     ecut=    50.00 Ry     beta= 0.30
     Davidson diagonalization with overlap

---- Real-time Memory Report at c_bands before calling an iterative solver
           327 MiB given to the printing process from OS
             0 MiB allocation reported by mallinfo(arena+hblkhd)
         26108 MiB available memory on the node where the printing process lives
------------------
     ethr =  4.94E-09,  avg # of iterations =  1.2

     negative rho (up, down):  1.293E-04 0.000E+00

     total cpu time spent up to now is      470.2 secs

     WARNING: integrated charge=    32.00001431, expected=    32.00000000

     total energy              =    -260.73121487 Ry
     estimated scf accuracy    <       0.00000027 Ry

     iteration #  8     ecut=    50.00 Ry     beta= 0.30
     Davidson diagonalization with overlap

---- Real-time Memory Report at c_bands before calling an iterative solver
           327 MiB given to the printing process from OS
             0 MiB allocation reported by mallinfo(arena+hblkhd)
         26108 MiB available memory on the node where the printing process lives
------------------
     ethr =  8.32E-10,  avg # of iterations =  2.6

     negative rho (up, down):  1.293E-04 0.000E+00

     total cpu time spent up to now is      478.8 secs

     WARNING: integrated charge=    32.00001431, expected=    32.00000000

     total energy              =    -260.73121489 Ry
     estimated scf accuracy    <       0.00000023 Ry

     iteration #  9     ecut=    50.00 Ry     beta= 0.30
