
     Program PWSCF v.7.3.1 starts on 14Dec2024 at 10:20:24 

     This program is part of the open-source Quantum ESPRESSO suite
     for quantum simulation of materials; please cite
         "P. Giannozzi et al., J. Phys.:Condens. Matter 21 395502 (2009);
         "P. Giannozzi et al., J. Phys.:Condens. Matter 29 465901 (2017);
         "P. Giannozzi et al., J. Chem. Phys. 152 154105 (2020);
          URL http://www.quantum-espresso.org", 
     in publications or presentations arising from this work. More details at
     http://www.quantum-espresso.org/quote

     Parallel version (MPI), running on     1 processors

     MPI processes distributed on     1 nodes
     26382 MiB available memory on the printing compute node when the environment starts

     Waiting for input...
     Reading input from standard input

     Current dimensions of program PWSCF are:
     Max number of different atomic species (ntypx) = 10
     Max number of k-points (npk) =  40000
     Max angular momentum in pseudopotentials (lmaxx) =  4

     File ./out/aiida.update deleted, as requested

     File ./out/aiida.bfgs deleted, as requested
     file O.pbesol-n-kjpaw_psl.0.1.UPF: wavefunction(s)  2P renormalized
     Message from routine setup:
     using ibrav=0 with symmetry is DISCOURAGED, use correct ibrav instead

     Subspace diagonalization in iterative solution of the eigenvalue problem:
     a serial algorithm will be used


     G-vector sticks info
     --------------------
     sticks:   dense  smooth     PW     G-vecs:    dense   smooth      PW
     Sum        6233    3105    921               185117    65363   10477

     Using Slab Decomposition



     bravais-lattice index     =            0
     lattice parameter (alat)  =       7.4873  a.u.
     unit-cell volume          =    1370.1431 (a.u.)^3
     number of atoms/cell      =            4
     number of atomic types    =            2
     number of electrons       =        32.00
     number of Kohn-Sham states=           20
     kinetic-energy cutoff     =      50.0000  Ry
     charge density cutoff     =     400.0000  Ry
     scf convergence threshold =      8.0E-10
     mixing beta               =       0.4000
     number of iterations used =            8  plain     mixing
     Exchange-correlation= SLA  PW   PSX  PSC
                           (   1   4  10   8   0   0   0)

     celldm(1)=   7.487284  celldm(2)=   0.000000  celldm(3)=   0.000000
     celldm(4)=   0.000000  celldm(5)=   0.000000  celldm(6)=   0.000000

     crystal axes: (cart. coord. in units of alat)
               a(1) = (   1.000000   0.000000   0.000000 )  
               a(2) = (   0.000000   3.496883   0.000000 )  
               a(3) = (   0.000000   0.000000   0.933495 )  

     reciprocal axes: (cart. coord. in units 2 pi/alat)
               b(1) = (  1.000000  0.000000  0.000000 )  
               b(2) = (  0.000000  0.285969  0.000000 )  
               b(3) = (  0.000000  0.000000  1.071243 )  


     PseudoPot. # 1 for Mo read from file:
     ./Mo_ONCV_PBEsol-1.0.upf
     MD5 check sum: 5193ba6a20874d27c2ef80314d1b3445
     Pseudo is Norm-conserving, Zval = 14.0
     Generated using ONCVPSP code by D. R. Hamann
     Using radial grid of 1508 points,  6 beta functions with: 
                l(1) =   0
                l(2) =   0
                l(3) =   1
                l(4) =   1
                l(5) =   2
                l(6) =   2

     PseudoPot. # 2 for O  read from file:
     ./O.pbesol-n-kjpaw_psl.0.1.UPF
     MD5 check sum: f1fabb93b5f951fba6cb430882e2825c
     Pseudo is Projector augmented-wave + core cor, Zval =  6.0
     Generated using &quot;atomic&quot; code by A. Dal Corso  v.6.3
     Shape of augmentation charge: BESSEL
     Using radial grid of 1095 points,  4 beta functions with: 
                l(1) =   0
                l(2) =   0
                l(3) =   1
                l(4) =   1
     Q(r) pseudized with 0 coefficients 


     atomic species   valence    mass     pseudopotential
     Mo               14.00    95.96000     Mo( 1.00)
     O                 6.00    15.99940     O ( 1.00)

      2 Sym. Ops. (no inversion) found ( 1 have fractional translation)


                                    s                        frac. trans.

      isym =  1     identity                                     

 cryst.   s( 1) = (     1          0          0      )
                  (     0          1          0      )
                  (     0          0          1      )

 cart.    s( 1) = (  1.0000000  0.0000000  0.0000000 )
                  (  0.0000000  1.0000000  0.0000000 )
                  (  0.0000000  0.0000000  1.0000000 )


      isym =  2     inv. 180 deg rotation - cart. axis [0,0,1]   

 cryst.   s( 2) = (     1          0          0      )    f =(  0.0000000 )
                  (     0          1          0      )       (  0.0000000 )
                  (     0          0         -1      )       (  0.5000000 )

 cart.    s( 2) = (  1.0000000  0.0000000  0.0000000 )    f =(  0.0000000 )
                  (  0.0000000  1.0000000  0.0000000 )       (  0.0000000 )
                  (  0.0000000  0.0000000 -1.0000000 )       (  0.4667474 )


   Cartesian axes

     site n.     atom                  positions (alat units)
         1        Mo     tau(   1) = (   0.5750000   1.3917594   0.7001211  )
         2        O      tau(   2) = (   0.5260000   1.4896721   0.2333737  )
         3        O      tau(   3) = (   0.0660000   1.4477095   0.7001211  )
         4        O      tau(   4) = (   0.5100000   0.9651397   0.7001211  )

   Crystallographic axes

     site n.     atom                  positions (cryst. coord.)
         1        Mo     tau(   1) = (  0.5750000  0.3980000  0.7500000  )
         2        O      tau(   2) = (  0.5260000  0.4260000  0.2500000  )
         3        O      tau(   3) = (  0.0660000  0.4140000  0.7500000  )
         4        O      tau(   4) = (  0.5100000  0.2760000  0.7500000  )

     number of k points=   161  Marzari-Vanderbilt smearing, width (Ry)=  0.0200
                       cart. coord. in units 2pi/alat
        k(    1) = (   0.0000000   0.0000000   0.0000000), wk =   0.0037879
        k(    2) = (   0.0000000   0.0000000   0.0892703), wk =   0.0075758
        k(    3) = (   0.0000000   0.0000000   0.1785405), wk =   0.0075758
        k(    4) = (   0.0000000   0.0000000   0.2678108), wk =   0.0075758
        k(    5) = (   0.0000000   0.0000000   0.3570811), wk =   0.0075758
        k(    6) = (   0.0000000   0.0000000   0.4463513), wk =   0.0075758
        k(    7) = (   0.0000000   0.0000000  -0.5356216), wk =   0.0037879
        k(    8) = (   0.0000000   0.0714922   0.0000000), wk =   0.0075758
        k(    9) = (   0.0000000   0.0714922   0.0892703), wk =   0.0151515
        k(   10) = (   0.0000000   0.0714922   0.1785405), wk =   0.0151515
        k(   11) = (   0.0000000   0.0714922   0.2678108), wk =   0.0151515
        k(   12) = (   0.0000000   0.0714922   0.3570811), wk =   0.0151515
        k(   13) = (   0.0000000   0.0714922   0.4463513), wk =   0.0151515
        k(   14) = (   0.0000000   0.0714922  -0.5356216), wk =   0.0075758
        k(   15) = (   0.0000000  -0.1429845   0.0000000), wk =   0.0037879
        k(   16) = (   0.0000000  -0.1429845   0.0892703), wk =   0.0075758
        k(   17) = (   0.0000000  -0.1429845   0.1785405), wk =   0.0075758
        k(   18) = (   0.0000000  -0.1429845   0.2678108), wk =   0.0075758
        k(   19) = (   0.0000000  -0.1429845   0.3570811), wk =   0.0075758
        k(   20) = (   0.0000000  -0.1429845   0.4463513), wk =   0.0075758
        k(   21) = (   0.0000000  -0.1429845  -0.5356216), wk =   0.0037879
        k(   22) = (   0.0909091   0.0000000   0.0000000), wk =   0.0075758
        k(   23) = (   0.0909091   0.0000000   0.0892703), wk =   0.0151515
        k(   24) = (   0.0909091   0.0000000   0.1785405), wk =   0.0151515
        k(   25) = (   0.0909091   0.0000000   0.2678108), wk =   0.0151515
        k(   26) = (   0.0909091   0.0000000   0.3570811), wk =   0.0151515
        k(   27) = (   0.0909091   0.0000000   0.4463513), wk =   0.0151515
        k(   28) = (   0.0909091   0.0000000  -0.5356216), wk =   0.0075758
        k(   29) = (   0.0909091   0.0714922   0.0000000), wk =   0.0075758
        k(   30) = (   0.0909091   0.0714922   0.0892703), wk =   0.0151515
        k(   31) = (   0.0909091   0.0714922   0.1785405), wk =   0.0151515
        k(   32) = (   0.0909091   0.0714922   0.2678108), wk =   0.0151515
        k(   33) = (   0.0909091   0.0714922   0.3570811), wk =   0.0151515
        k(   34) = (   0.0909091   0.0714922   0.4463513), wk =   0.0151515
        k(   35) = (   0.0909091   0.0714922  -0.5356216), wk =   0.0075758
        k(   36) = (   0.0909091  -0.1429845   0.0000000), wk =   0.0075758
        k(   37) = (   0.0909091  -0.1429845   0.0892703), wk =   0.0151515
        k(   38) = (   0.0909091  -0.1429845   0.1785405), wk =   0.0151515
        k(   39) = (   0.0909091  -0.1429845   0.2678108), wk =   0.0151515
        k(   40) = (   0.0909091  -0.1429845   0.3570811), wk =   0.0151515
        k(   41) = (   0.0909091  -0.1429845   0.4463513), wk =   0.0151515
        k(   42) = (   0.0909091  -0.1429845  -0.5356216), wk =   0.0075758
        k(   43) = (   0.1818182   0.0000000   0.0000000), wk =   0.0075758
        k(   44) = (   0.1818182   0.0000000   0.0892703), wk =   0.0151515
        k(   45) = (   0.1818182   0.0000000   0.1785405), wk =   0.0151515
        k(   46) = (   0.1818182   0.0000000   0.2678108), wk =   0.0151515
        k(   47) = (   0.1818182   0.0000000   0.3570811), wk =   0.0151515
        k(   48) = (   0.1818182   0.0000000   0.4463513), wk =   0.0151515
        k(   49) = (   0.1818182   0.0000000  -0.5356216), wk =   0.0075758
        k(   50) = (   0.1818182   0.0714922   0.0000000), wk =   0.0075758
        k(   51) = (   0.1818182   0.0714922   0.0892703), wk =   0.0151515
        k(   52) = (   0.1818182   0.0714922   0.1785405), wk =   0.0151515
        k(   53) = (   0.1818182   0.0714922   0.2678108), wk =   0.0151515
        k(   54) = (   0.1818182   0.0714922   0.3570811), wk =   0.0151515
        k(   55) = (   0.1818182   0.0714922   0.4463513), wk =   0.0151515
        k(   56) = (   0.1818182   0.0714922  -0.5356216), wk =   0.0075758
        k(   57) = (   0.1818182  -0.1429845   0.0000000), wk =   0.0075758
        k(   58) = (   0.1818182  -0.1429845   0.0892703), wk =   0.0151515
        k(   59) = (   0.1818182  -0.1429845   0.1785405), wk =   0.0151515
        k(   60) = (   0.1818182  -0.1429845   0.2678108), wk =   0.0151515
        k(   61) = (   0.1818182  -0.1429845   0.3570811), wk =   0.0151515
        k(   62) = (   0.1818182  -0.1429845   0.4463513), wk =   0.0151515
        k(   63) = (   0.1818182  -0.1429845  -0.5356216), wk =   0.0075758
        k(   64) = (   0.2727273   0.0000000   0.0000000), wk =   0.0075758
        k(   65) = (   0.2727273   0.0000000   0.0892703), wk =   0.0151515
        k(   66) = (   0.2727273   0.0000000   0.1785405), wk =   0.0151515
        k(   67) = (   0.2727273   0.0000000   0.2678108), wk =   0.0151515
        k(   68) = (   0.2727273   0.0000000   0.3570811), wk =   0.0151515
        k(   69) = (   0.2727273   0.0000000   0.4463513), wk =   0.0151515
        k(   70) = (   0.2727273   0.0000000  -0.5356216), wk =   0.0075758
        k(   71) = (   0.2727273   0.0714922   0.0000000), wk =   0.0075758
        k(   72) = (   0.2727273   0.0714922   0.0892703), wk =   0.0151515
        k(   73) = (   0.2727273   0.0714922   0.1785405), wk =   0.0151515
        k(   74) = (   0.2727273   0.0714922   0.2678108), wk =   0.0151515
        k(   75) = (   0.2727273   0.0714922   0.3570811), wk =   0.0151515
        k(   76) = (   0.2727273   0.0714922   0.4463513), wk =   0.0151515
        k(   77) = (   0.2727273   0.0714922  -0.5356216), wk =   0.0075758
        k(   78) = (   0.2727273  -0.1429845   0.0000000), wk =   0.0075758
        k(   79) = (   0.2727273  -0.1429845   0.0892703), wk =   0.0151515
        k(   80) = (   0.2727273  -0.1429845   0.1785405), wk =   0.0151515
        k(   81) = (   0.2727273  -0.1429845   0.2678108), wk =   0.0151515
        k(   82) = (   0.2727273  -0.1429845   0.3570811), wk =   0.0151515
        k(   83) = (   0.2727273  -0.1429845   0.4463513), wk =   0.0151515
        k(   84) = (   0.2727273  -0.1429845  -0.5356216), wk =   0.0075758
        k(   85) = (   0.3636364   0.0000000   0.0000000), wk =   0.0075758
        k(   86) = (   0.3636364   0.0000000   0.0892703), wk =   0.0151515
        k(   87) = (   0.3636364   0.0000000   0.1785405), wk =   0.0151515
        k(   88) = (   0.3636364   0.0000000   0.2678108), wk =   0.0151515
        k(   89) = (   0.3636364   0.0000000   0.3570811), wk =   0.0151515
        k(   90) = (   0.3636364   0.0000000   0.4463513), wk =   0.0151515
        k(   91) = (   0.3636364   0.0000000  -0.5356216), wk =   0.0075758
        k(   92) = (   0.3636364   0.0714922   0.0000000), wk =   0.0075758
        k(   93) = (   0.3636364   0.0714922   0.0892703), wk =   0.0151515
        k(   94) = (   0.3636364   0.0714922   0.1785405), wk =   0.0151515
        k(   95) = (   0.3636364   0.0714922   0.2678108), wk =   0.0151515
        k(   96) = (   0.3636364   0.0714922   0.3570811), wk =   0.0151515
        k(   97) = (   0.3636364   0.0714922   0.4463513), wk =   0.0151515
        k(   98) = (   0.3636364   0.0714922  -0.5356216), wk =   0.0075758
        k(   99) = (   0.3636364  -0.1429845   0.0000000), wk =   0.0075758
        k(  100) = (   0.3636364  -0.1429845   0.0892703), wk =   0.0151515
        k(  101) = (   0.3636364  -0.1429845   0.1785405), wk =   0.0151515
        k(  102) = (   0.3636364  -0.1429845   0.2678108), wk =   0.0151515
        k(  103) = (   0.3636364  -0.1429845   0.3570811), wk =   0.0151515
        k(  104) = (   0.3636364  -0.1429845   0.4463513), wk =   0.0151515
        k(  105) = (   0.3636364  -0.1429845  -0.5356216), wk =   0.0075758
        k(  106) = (   0.4545455   0.0000000   0.0000000), wk =   0.0075758
        k(  107) = (   0.4545455   0.0000000   0.0892703), wk =   0.0151515
        k(  108) = (   0.4545455   0.0000000   0.1785405), wk =   0.0151515
        k(  109) = (   0.4545455   0.0000000   0.2678108), wk =   0.0151515
        k(  110) = (   0.4545455   0.0000000   0.3570811), wk =   0.0151515
        k(  111) = (   0.4545455   0.0000000   0.4463513), wk =   0.0151515
        k(  112) = (   0.4545455   0.0000000  -0.5356216), wk =   0.0075758
        k(  113) = (   0.4545455   0.0714922   0.0000000), wk =   0.0075758
        k(  114) = (   0.4545455   0.0714922   0.0892703), wk =   0.0151515
        k(  115) = (   0.4545455   0.0714922   0.1785405), wk =   0.0151515
        k(  116) = (   0.4545455   0.0714922   0.2678108), wk =   0.0151515
        k(  117) = (   0.4545455   0.0714922   0.3570811), wk =   0.0151515
        k(  118) = (   0.4545455   0.0714922   0.4463513), wk =   0.0151515
        k(  119) = (   0.4545455   0.0714922  -0.5356216), wk =   0.0075758
        k(  120) = (   0.4545455  -0.1429845   0.0000000), wk =   0.0075758
        k(  121) = (   0.4545455  -0.1429845   0.0892703), wk =   0.0151515
        k(  122) = (   0.4545455  -0.1429845   0.1785405), wk =   0.0151515
        k(  123) = (   0.4545455  -0.1429845   0.2678108), wk =   0.0151515
        k(  124) = (   0.4545455  -0.1429845   0.3570811), wk =   0.0151515
        k(  125) = (   0.4545455  -0.1429845   0.4463513), wk =   0.0151515
        k(  126) = (   0.4545455  -0.1429845  -0.5356216), wk =   0.0075758
        k(  127) = (  -0.0909091   0.0714922   0.0000000), wk =   0.0075758
        k(  128) = (  -0.0909091   0.0714922  -0.0892703), wk =   0.0151515
        k(  129) = (  -0.0909091   0.0714922  -0.1785405), wk =   0.0151515
        k(  130) = (  -0.0909091   0.0714922  -0.2678108), wk =   0.0151515
        k(  131) = (  -0.0909091   0.0714922  -0.3570811), wk =   0.0151515
        k(  132) = (  -0.0909091   0.0714922  -0.4463513), wk =   0.0151515
        k(  133) = (  -0.0909091   0.0714922   0.5356216), wk =   0.0075758
        k(  134) = (  -0.1818182   0.0714922   0.0000000), wk =   0.0075758
        k(  135) = (  -0.1818182   0.0714922  -0.0892703), wk =   0.0151515
        k(  136) = (  -0.1818182   0.0714922  -0.1785405), wk =   0.0151515
        k(  137) = (  -0.1818182   0.0714922  -0.2678108), wk =   0.0151515
        k(  138) = (  -0.1818182   0.0714922  -0.3570811), wk =   0.0151515
        k(  139) = (  -0.1818182   0.0714922  -0.4463513), wk =   0.0151515
        k(  140) = (  -0.1818182   0.0714922   0.5356216), wk =   0.0075758
        k(  141) = (  -0.2727273   0.0714922   0.0000000), wk =   0.0075758
        k(  142) = (  -0.2727273   0.0714922  -0.0892703), wk =   0.0151515
        k(  143) = (  -0.2727273   0.0714922  -0.1785405), wk =   0.0151515
        k(  144) = (  -0.2727273   0.0714922  -0.2678108), wk =   0.0151515
        k(  145) = (  -0.2727273   0.0714922  -0.3570811), wk =   0.0151515
        k(  146) = (  -0.2727273   0.0714922  -0.4463513), wk =   0.0151515
        k(  147) = (  -0.2727273   0.0714922   0.5356216), wk =   0.0075758
        k(  148) = (  -0.3636364   0.0714922   0.0000000), wk =   0.0075758
        k(  149) = (  -0.3636364   0.0714922  -0.0892703), wk =   0.0151515
        k(  150) = (  -0.3636364   0.0714922  -0.1785405), wk =   0.0151515
        k(  151) = (  -0.3636364   0.0714922  -0.2678108), wk =   0.0151515
        k(  152) = (  -0.3636364   0.0714922  -0.3570811), wk =   0.0151515
        k(  153) = (  -0.3636364   0.0714922  -0.4463513), wk =   0.0151515
        k(  154) = (  -0.3636364   0.0714922   0.5356216), wk =   0.0075758
        k(  155) = (  -0.4545455   0.0714922   0.0000000), wk =   0.0075758
        k(  156) = (  -0.4545455   0.0714922  -0.0892703), wk =   0.0151515
        k(  157) = (  -0.4545455   0.0714922  -0.1785405), wk =   0.0151515
        k(  158) = (  -0.4545455   0.0714922  -0.2678108), wk =   0.0151515
        k(  159) = (  -0.4545455   0.0714922  -0.3570811), wk =   0.0151515
        k(  160) = (  -0.4545455   0.0714922  -0.4463513), wk =   0.0151515
        k(  161) = (  -0.4545455   0.0714922   0.5356216), wk =   0.0075758

                       cryst. coord.
        k(    1) = (   0.0000000   0.0000000   0.0000000), wk =   0.0037879
        k(    2) = (   0.0000000   0.0000000   0.0833333), wk =   0.0075758
        k(    3) = (   0.0000000   0.0000000   0.1666667), wk =   0.0075758
        k(    4) = (   0.0000000   0.0000000   0.2500000), wk =   0.0075758
        k(    5) = (   0.0000000   0.0000000   0.3333333), wk =   0.0075758
        k(    6) = (   0.0000000   0.0000000   0.4166667), wk =   0.0075758
        k(    7) = (   0.0000000   0.0000000  -0.5000000), wk =   0.0037879
        k(    8) = (   0.0000000   0.2500000   0.0000000), wk =   0.0075758
        k(    9) = (   0.0000000   0.2500000   0.0833333), wk =   0.0151515
        k(   10) = (   0.0000000   0.2500000   0.1666667), wk =   0.0151515
        k(   11) = (   0.0000000   0.2500000   0.2500000), wk =   0.0151515
        k(   12) = (   0.0000000   0.2500000   0.3333333), wk =   0.0151515
        k(   13) = (   0.0000000   0.2500000   0.4166667), wk =   0.0151515
        k(   14) = (   0.0000000   0.2500000  -0.5000000), wk =   0.0075758
        k(   15) = (   0.0000000  -0.5000000   0.0000000), wk =   0.0037879
        k(   16) = (   0.0000000  -0.5000000   0.0833333), wk =   0.0075758
        k(   17) = (   0.0000000  -0.5000000   0.1666667), wk =   0.0075758
        k(   18) = (   0.0000000  -0.5000000   0.2500000), wk =   0.0075758
        k(   19) = (   0.0000000  -0.5000000   0.3333333), wk =   0.0075758
        k(   20) = (   0.0000000  -0.5000000   0.4166667), wk =   0.0075758
        k(   21) = (   0.0000000  -0.5000000  -0.5000000), wk =   0.0037879
        k(   22) = (   0.0909091   0.0000000   0.0000000), wk =   0.0075758
        k(   23) = (   0.0909091   0.0000000   0.0833333), wk =   0.0151515
        k(   24) = (   0.0909091   0.0000000   0.1666667), wk =   0.0151515
        k(   25) = (   0.0909091   0.0000000   0.2500000), wk =   0.0151515
        k(   26) = (   0.0909091   0.0000000   0.3333333), wk =   0.0151515
        k(   27) = (   0.0909091   0.0000000   0.4166667), wk =   0.0151515
        k(   28) = (   0.0909091   0.0000000  -0.5000000), wk =   0.0075758
        k(   29) = (   0.0909091   0.2500000   0.0000000), wk =   0.0075758
        k(   30) = (   0.0909091   0.2500000   0.0833333), wk =   0.0151515
        k(   31) = (   0.0909091   0.2500000   0.1666667), wk =   0.0151515
        k(   32) = (   0.0909091   0.2500000   0.2500000), wk =   0.0151515
        k(   33) = (   0.0909091   0.2500000   0.3333333), wk =   0.0151515
        k(   34) = (   0.0909091   0.2500000   0.4166667), wk =   0.0151515
        k(   35) = (   0.0909091   0.2500000  -0.5000000), wk =   0.0075758
        k(   36) = (   0.0909091  -0.5000000   0.0000000), wk =   0.0075758
        k(   37) = (   0.0909091  -0.5000000   0.0833333), wk =   0.0151515
        k(   38) = (   0.0909091  -0.5000000   0.1666667), wk =   0.0151515
        k(   39) = (   0.0909091  -0.5000000   0.2500000), wk =   0.0151515
        k(   40) = (   0.0909091  -0.5000000   0.3333333), wk =   0.0151515
        k(   41) = (   0.0909091  -0.5000000   0.4166667), wk =   0.0151515
        k(   42) = (   0.0909091  -0.5000000  -0.5000000), wk =   0.0075758
        k(   43) = (   0.1818182   0.0000000   0.0000000), wk =   0.0075758
        k(   44) = (   0.1818182   0.0000000   0.0833333), wk =   0.0151515
        k(   45) = (   0.1818182   0.0000000   0.1666667), wk =   0.0151515
        k(   46) = (   0.1818182   0.0000000   0.2500000), wk =   0.0151515
        k(   47) = (   0.1818182   0.0000000   0.3333333), wk =   0.0151515
        k(   48) = (   0.1818182   0.0000000   0.4166667), wk =   0.0151515
        k(   49) = (   0.1818182   0.0000000  -0.5000000), wk =   0.0075758
        k(   50) = (   0.1818182   0.2500000   0.0000000), wk =   0.0075758
        k(   51) = (   0.1818182   0.2500000   0.0833333), wk =   0.0151515
        k(   52) = (   0.1818182   0.2500000   0.1666667), wk =   0.0151515
        k(   53) = (   0.1818182   0.2500000   0.2500000), wk =   0.0151515
        k(   54) = (   0.1818182   0.2500000   0.3333333), wk =   0.0151515
        k(   55) = (   0.1818182   0.2500000   0.4166667), wk =   0.0151515
        k(   56) = (   0.1818182   0.2500000  -0.5000000), wk =   0.0075758
        k(   57) = (   0.1818182  -0.5000000   0.0000000), wk =   0.0075758
        k(   58) = (   0.1818182  -0.5000000   0.0833333), wk =   0.0151515
        k(   59) = (   0.1818182  -0.5000000   0.1666667), wk =   0.0151515
        k(   60) = (   0.1818182  -0.5000000   0.2500000), wk =   0.0151515
        k(   61) = (   0.1818182  -0.5000000   0.3333333), wk =   0.0151515
        k(   62) = (   0.1818182  -0.5000000   0.4166667), wk =   0.0151515
        k(   63) = (   0.1818182  -0.5000000  -0.5000000), wk =   0.0075758
        k(   64) = (   0.2727273   0.0000000   0.0000000), wk =   0.0075758
        k(   65) = (   0.2727273   0.0000000   0.0833333), wk =   0.0151515
        k(   66) = (   0.2727273   0.0000000   0.1666667), wk =   0.0151515
        k(   67) = (   0.2727273   0.0000000   0.2500000), wk =   0.0151515
        k(   68) = (   0.2727273   0.0000000   0.3333333), wk =   0.0151515
        k(   69) = (   0.2727273   0.0000000   0.4166667), wk =   0.0151515
        k(   70) = (   0.2727273   0.0000000  -0.5000000), wk =   0.0075758
        k(   71) = (   0.2727273   0.2500000   0.0000000), wk =   0.0075758
        k(   72) = (   0.2727273   0.2500000   0.0833333), wk =   0.0151515
        k(   73) = (   0.2727273   0.2500000   0.1666667), wk =   0.0151515
        k(   74) = (   0.2727273   0.2500000   0.2500000), wk =   0.0151515
        k(   75) = (   0.2727273   0.2500000   0.3333333), wk =   0.0151515
        k(   76) = (   0.2727273   0.2500000   0.4166667), wk =   0.0151515
        k(   77) = (   0.2727273   0.2500000  -0.5000000), wk =   0.0075758
        k(   78) = (   0.2727273  -0.5000000   0.0000000), wk =   0.0075758
        k(   79) = (   0.2727273  -0.5000000   0.0833333), wk =   0.0151515
        k(   80) = (   0.2727273  -0.5000000   0.1666667), wk =   0.0151515
        k(   81) = (   0.2727273  -0.5000000   0.2500000), wk =   0.0151515
        k(   82) = (   0.2727273  -0.5000000   0.3333333), wk =   0.0151515
        k(   83) = (   0.2727273  -0.5000000   0.4166667), wk =   0.0151515
        k(   84) = (   0.2727273  -0.5000000  -0.5000000), wk =   0.0075758
        k(   85) = (   0.3636364   0.0000000   0.0000000), wk =   0.0075758
        k(   86) = (   0.3636364   0.0000000   0.0833333), wk =   0.0151515
        k(   87) = (   0.3636364   0.0000000   0.1666667), wk =   0.0151515
        k(   88) = (   0.3636364   0.0000000   0.2500000), wk =   0.0151515
        k(   89) = (   0.3636364   0.0000000   0.3333333), wk =   0.0151515
        k(   90) = (   0.3636364   0.0000000   0.4166667), wk =   0.0151515
        k(   91) = (   0.3636364   0.0000000  -0.5000000), wk =   0.0075758
        k(   92) = (   0.3636364   0.2500000   0.0000000), wk =   0.0075758
        k(   93) = (   0.3636364   0.2500000   0.0833333), wk =   0.0151515
        k(   94) = (   0.3636364   0.2500000   0.1666667), wk =   0.0151515
        k(   95) = (   0.3636364   0.2500000   0.2500000), wk =   0.0151515
        k(   96) = (   0.3636364   0.2500000   0.3333333), wk =   0.0151515
        k(   97) = (   0.3636364   0.2500000   0.4166667), wk =   0.0151515
        k(   98) = (   0.3636364   0.2500000  -0.5000000), wk =   0.0075758
        k(   99) = (   0.3636364  -0.5000000   0.0000000), wk =   0.0075758
        k(  100) = (   0.3636364  -0.5000000   0.0833333), wk =   0.0151515
        k(  101) = (   0.3636364  -0.5000000   0.1666667), wk =   0.0151515
        k(  102) = (   0.3636364  -0.5000000   0.2500000), wk =   0.0151515
        k(  103) = (   0.3636364  -0.5000000   0.3333333), wk =   0.0151515
        k(  104) = (   0.3636364  -0.5000000   0.4166667), wk =   0.0151515
        k(  105) = (   0.3636364  -0.5000000  -0.5000000), wk =   0.0075758
        k(  106) = (   0.4545455   0.0000000   0.0000000), wk =   0.0075758
        k(  107) = (   0.4545455   0.0000000   0.0833333), wk =   0.0151515
        k(  108) = (   0.4545455   0.0000000   0.1666667), wk =   0.0151515
        k(  109) = (   0.4545455   0.0000000   0.2500000), wk =   0.0151515
        k(  110) = (   0.4545455   0.0000000   0.3333333), wk =   0.0151515
        k(  111) = (   0.4545455   0.0000000   0.4166667), wk =   0.0151515
        k(  112) = (   0.4545455   0.0000000  -0.5000000), wk =   0.0075758
        k(  113) = (   0.4545455   0.2500000   0.0000000), wk =   0.0075758
        k(  114) = (   0.4545455   0.2500000   0.0833333), wk =   0.0151515
        k(  115) = (   0.4545455   0.2500000   0.1666667), wk =   0.0151515
        k(  116) = (   0.4545455   0.2500000   0.2500000), wk =   0.0151515
        k(  117) = (   0.4545455   0.2500000   0.3333333), wk =   0.0151515
        k(  118) = (   0.4545455   0.2500000   0.4166667), wk =   0.0151515
        k(  119) = (   0.4545455   0.2500000  -0.5000000), wk =   0.0075758
        k(  120) = (   0.4545455  -0.5000000   0.0000000), wk =   0.0075758
        k(  121) = (   0.4545455  -0.5000000   0.0833333), wk =   0.0151515
        k(  122) = (   0.4545455  -0.5000000   0.1666667), wk =   0.0151515
        k(  123) = (   0.4545455  -0.5000000   0.2500000), wk =   0.0151515
        k(  124) = (   0.4545455  -0.5000000   0.3333333), wk =   0.0151515
        k(  125) = (   0.4545455  -0.5000000   0.4166667), wk =   0.0151515
        k(  126) = (   0.4545455  -0.5000000  -0.5000000), wk =   0.0075758
        k(  127) = (  -0.0909091   0.2500000   0.0000000), wk =   0.0075758
        k(  128) = (  -0.0909091   0.2500000  -0.0833333), wk =   0.0151515
        k(  129) = (  -0.0909091   0.2500000  -0.1666667), wk =   0.0151515
        k(  130) = (  -0.0909091   0.2500000  -0.2500000), wk =   0.0151515
        k(  131) = (  -0.0909091   0.2500000  -0.3333333), wk =   0.0151515
        k(  132) = (  -0.0909091   0.2500000  -0.4166667), wk =   0.0151515
        k(  133) = (  -0.0909091   0.2500000   0.5000000), wk =   0.0075758
        k(  134) = (  -0.1818182   0.2500000   0.0000000), wk =   0.0075758
        k(  135) = (  -0.1818182   0.2500000  -0.0833333), wk =   0.0151515
        k(  136) = (  -0.1818182   0.2500000  -0.1666667), wk =   0.0151515
        k(  137) = (  -0.1818182   0.2500000  -0.2500000), wk =   0.0151515
        k(  138) = (  -0.1818182   0.2500000  -0.3333333), wk =   0.0151515
        k(  139) = (  -0.1818182   0.2500000  -0.4166667), wk =   0.0151515
        k(  140) = (  -0.1818182   0.2500000   0.5000000), wk =   0.0075758
        k(  141) = (  -0.2727273   0.2500000   0.0000000), wk =   0.0075758
        k(  142) = (  -0.2727273   0.2500000  -0.0833333), wk =   0.0151515
        k(  143) = (  -0.2727273   0.2500000  -0.1666667), wk =   0.0151515
        k(  144) = (  -0.2727273   0.2500000  -0.2500000), wk =   0.0151515
        k(  145) = (  -0.2727273   0.2500000  -0.3333333), wk =   0.0151515
        k(  146) = (  -0.2727273   0.2500000  -0.4166667), wk =   0.0151515
        k(  147) = (  -0.2727273   0.2500000   0.5000000), wk =   0.0075758
        k(  148) = (  -0.3636364   0.2500000   0.0000000), wk =   0.0075758
        k(  149) = (  -0.3636364   0.2500000  -0.0833333), wk =   0.0151515
        k(  150) = (  -0.3636364   0.2500000  -0.1666667), wk =   0.0151515
        k(  151) = (  -0.3636364   0.2500000  -0.2500000), wk =   0.0151515
        k(  152) = (  -0.3636364   0.2500000  -0.3333333), wk =   0.0151515
        k(  153) = (  -0.3636364   0.2500000  -0.4166667), wk =   0.0151515
        k(  154) = (  -0.3636364   0.2500000   0.5000000), wk =   0.0075758
        k(  155) = (  -0.4545455   0.2500000   0.0000000), wk =   0.0075758
        k(  156) = (  -0.4545455   0.2500000  -0.0833333), wk =   0.0151515
        k(  157) = (  -0.4545455   0.2500000  -0.1666667), wk =   0.0151515
        k(  158) = (  -0.4545455   0.2500000  -0.2500000), wk =   0.0151515
        k(  159) = (  -0.4545455   0.2500000  -0.3333333), wk =   0.0151515
        k(  160) = (  -0.4545455   0.2500000  -0.4166667), wk =   0.0151515
        k(  161) = (  -0.4545455   0.2500000   0.5000000), wk =   0.0075758

     Dense  grid:   185117 G-vectors     FFT dimensions: (  48, 180,  48)

     Smooth grid:    65363 G-vectors     FFT dimensions: (  36, 120,  32)

     Dynamical RAM for                 wfc:       2.50 MB

     Dynamical RAM for     wfc (w. buffer):     404.41 MB

     Dynamical RAM for           str. fact:       5.65 MB

     Dynamical RAM for           local pot:       0.00 MB

     Dynamical RAM for          nlocal pot:       5.24 MB

     Dynamical RAM for                qrad:       3.21 MB

     Dynamical RAM for          rho,v,vnew:      17.97 MB

     Dynamical RAM for               rhoin:       5.99 MB

     Dynamical RAM for            rho*nmix:      45.19 MB

     Dynamical RAM for           G-vectors:      11.09 MB

     Dynamical RAM for          h,s,v(r/c):       0.07 MB

     Dynamical RAM for          <psi|beta>:       0.01 MB

     Dynamical RAM for                 psi:       4.99 MB

     Dynamical RAM for                hpsi:       4.99 MB

     Dynamical RAM for                spsi:       4.99 MB

     Dynamical RAM for      wfcinit/wfcrot:       5.50 MB

     Dynamical RAM for           addusdens:     152.53 MB

     Dynamical RAM for          addusforce:     165.25 MB

     Dynamical RAM for         addusstress:     186.43 MB

     Estimated static dynamical RAM per process >     477.85 MB

     Estimated max dynamical RAM per process >     709.47 MB

     Check: negative core charge=   -0.000001

     Initial potential from superposition of free atoms

     starting charge      31.9991, renormalised to      32.0000

     negative rho (up, down):  8.152E-05 0.000E+00
     Starting wfcs are   22 randomized atomic wfcs
     Checking if some PAW data can be deallocated... 

     total cpu time spent up to now is       19.0 secs

     Self-consistent Calculation

     iteration #  1     ecut=    50.00 Ry     beta= 0.40
     Davidson diagonalization with overlap

---- Real-time Memory Report at c_bands before calling an iterative solver
           529 MiB given to the printing process from OS
             0 MiB allocation reported by mallinfo(arena+hblkhd)
         25852 MiB available memory on the node where the printing process lives
------------------
     ethr =  1.00E-02,  avg # of iterations =  2.5

     negative rho (up, down):  6.888E-05 0.000E+00

     total cpu time spent up to now is       61.0 secs

     total energy              =    -259.94467628 Ry
     estimated scf accuracy    <       2.03144852 Ry

     iteration #  2     ecut=    50.00 Ry     beta= 0.40
     Davidson diagonalization with overlap

---- Real-time Memory Report at c_bands before calling an iterative solver
           693 MiB given to the printing process from OS
             0 MiB allocation reported by mallinfo(arena+hblkhd)
         25697 MiB available memory on the node where the printing process lives
------------------
     ethr =  6.35E-03,  avg # of iterations =  3.6

     negative rho (up, down):  7.850E-05 0.000E+00

     total cpu time spent up to now is      106.9 secs

     total energy              =    -259.76511514 Ry
     estimated scf accuracy    <       6.07147215 Ry

     iteration #  3     ecut=    50.00 Ry     beta= 0.40
     Davidson diagonalization with overlap

---- Real-time Memory Report at c_bands before calling an iterative solver
           695 MiB given to the printing process from OS
             0 MiB allocation reported by mallinfo(arena+hblkhd)
         25680 MiB available memory on the node where the printing process lives
------------------
     ethr =  6.35E-03,  avg # of iterations =  2.1

     negative rho (up, down):  5.438E-05 0.000E+00

     total cpu time spent up to now is      145.5 secs

     total energy              =    -260.64665499 Ry
     estimated scf accuracy    <       0.75183266 Ry

     iteration #  4     ecut=    50.00 Ry     beta= 0.40
     Davidson diagonalization with overlap

---- Real-time Memory Report at c_bands before calling an iterative solver
           697 MiB given to the printing process from OS
             0 MiB allocation reported by mallinfo(arena+hblkhd)
         25665 MiB available memory on the node where the printing process lives
------------------
     ethr =  2.35E-03,  avg # of iterations =  1.6

     negative rho (up, down):  6.460E-05 0.000E+00

     total cpu time spent up to now is      182.0 secs

     WARNING: integrated charge=    32.00036057, expected=    32.00000000

     total energy              =    -260.69560289 Ry
     estimated scf accuracy    <       0.10339246 Ry

     iteration #  5     ecut=    50.00 Ry     beta= 0.40
     Davidson diagonalization with overlap

---- Real-time Memory Report at c_bands before calling an iterative solver
           699 MiB given to the printing process from OS
             0 MiB allocation reported by mallinfo(arena+hblkhd)
         25702 MiB available memory on the node where the printing process lives
------------------
     ethr =  3.23E-04,  avg # of iterations =  1.8

     negative rho (up, down):  7.465E-05 0.000E+00

     total cpu time spent up to now is      219.1 secs

     WARNING: integrated charge=    32.00238857, expected=    32.00000000

     total energy              =    -260.70214350 Ry
     estimated scf accuracy    <       0.01101717 Ry

     iteration #  6     ecut=    50.00 Ry     beta= 0.40
     Davidson diagonalization with overlap

---- Real-time Memory Report at c_bands before calling an iterative solver
           701 MiB given to the printing process from OS
             0 MiB allocation reported by mallinfo(arena+hblkhd)
         25686 MiB available memory on the node where the printing process lives
------------------
     ethr =  3.44E-05,  avg # of iterations =  5.9

     negative rho (up, down):  8.181E-05 0.000E+00

     total cpu time spent up to now is      264.4 secs

     WARNING: integrated charge=    32.00410403, expected=    32.00000000

     total energy              =    -260.70451323 Ry
     estimated scf accuracy    <       0.00320471 Ry

     iteration #  7     ecut=    50.00 Ry     beta= 0.40
     Davidson diagonalization with overlap

---- Real-time Memory Report at c_bands before calling an iterative solver
           703 MiB given to the printing process from OS
             0 MiB allocation reported by mallinfo(arena+hblkhd)
         25699 MiB available memory on the node where the printing process lives
------------------
     ethr =  1.00E-05,  avg # of iterations =  2.2

     negative rho (up, down):  8.291E-05 0.000E+00

     total cpu time spent up to now is      302.0 secs

     WARNING: integrated charge=    32.00565139, expected=    32.00000000

     total energy              =    -260.70513873 Ry
     estimated scf accuracy    <       0.00052903 Ry

     iteration #  8     ecut=    50.00 Ry     beta= 0.40
     Davidson diagonalization with overlap

---- Real-time Memory Report at c_bands before calling an iterative solver
           705 MiB given to the printing process from OS
             0 MiB allocation reported by mallinfo(arena+hblkhd)
         25694 MiB available memory on the node where the printing process lives
------------------
     ethr =  1.65E-06,  avg # of iterations =  2.3

     negative rho (up, down):  8.325E-05 0.000E+00

     total cpu time spent up to now is      339.1 secs

     WARNING: integrated charge=    32.00616181, expected=    32.00000000

     total energy              =    -260.70502938 Ry
     estimated scf accuracy    <       0.00002244 Ry

     iteration #  9     ecut=    50.00 Ry     beta= 0.40
     Davidson diagonalization with overlap

---- Real-time Memory Report at c_bands before calling an iterative solver
           707 MiB given to the printing process from OS
             0 MiB allocation reported by mallinfo(arena+hblkhd)
         25687 MiB available memory on the node where the printing process lives
------------------
     ethr =  7.01E-08,  avg # of iterations =  4.0

     negative rho (up, down):  8.328E-05 0.000E+00

     total cpu time spent up to now is      386.7 secs

     WARNING: integrated charge=    32.00626350, expected=    32.00000000

     total energy              =    -260.70504291 Ry
     estimated scf accuracy    <       0.00001324 Ry

     iteration # 10     ecut=    50.00 Ry     beta= 0.40
     Davidson diagonalization with overlap

---- Real-time Memory Report at c_bands before calling an iterative solver
           709 MiB given to the printing process from OS
             0 MiB allocation reported by mallinfo(arena+hblkhd)
         25683 MiB available memory on the node where the printing process lives
------------------
     ethr =  4.14E-08,  avg # of iterations =  1.4

     negative rho (up, down):  8.325E-05 0.000E+00

     total cpu time spent up to now is      422.2 secs

     WARNING: integrated charge=    32.00638434, expected=    32.00000000

     total energy              =    -260.70506174 Ry
     estimated scf accuracy    <       0.00000166 Ry

     iteration # 11     ecut=    50.00 Ry     beta= 0.40
     Davidson diagonalization with overlap

---- Real-time Memory Report at c_bands before calling an iterative solver
           709 MiB given to the printing process from OS
             0 MiB allocation reported by mallinfo(arena+hblkhd)
         25667 MiB available memory on the node where the printing process lives
------------------
     ethr =  5.20E-09,  avg # of iterations =  1.4

     negative rho (up, down):  8.322E-05 0.000E+00

     total cpu time spent up to now is      457.7 secs

     WARNING: integrated charge=    32.00639256, expected=    32.00000000

     total energy              =    -260.70505083 Ry
     estimated scf accuracy    <       0.00000010 Ry

     iteration # 12     ecut=    50.00 Ry     beta= 0.40
     Davidson diagonalization with overlap

---- Real-time Memory Report at c_bands before calling an iterative solver
           709 MiB given to the printing process from OS
             0 MiB allocation reported by mallinfo(arena+hblkhd)
         25652 MiB available memory on the node where the printing process lives
------------------
     ethr =  2.98E-10,  avg # of iterations =  2.8

     negative rho (up, down):  8.321E-05 0.000E+00

     total cpu time spent up to now is      498.7 secs

     WARNING: integrated charge=    32.00639346, expected=    32.00000000

     total energy              =    -260.70505238 Ry
     estimated scf accuracy    <          6.6E-09 Ry

     iteration # 13     ecut=    50.00 Ry     beta= 0.40
     Davidson diagonalization with overlap

---- Real-time Memory Report at c_bands before calling an iterative solver
           709 MiB given to the printing process from OS
             0 MiB allocation reported by mallinfo(arena+hblkhd)
         25655 MiB available memory on the node where the printing process lives
------------------
     ethr =  2.05E-11,  avg # of iterations =  3.6

     negative rho (up, down):  8.320E-05 0.000E+00

     total cpu time spent up to now is      545.0 secs

     WARNING: integrated charge=    32.00639426, expected=    32.00000000

     total energy              =    -260.70505256 Ry
     estimated scf accuracy    <          1.7E-09 Ry

     iteration # 14     ecut=    50.00 Ry     beta= 0.40
     Davidson diagonalization with overlap

---- Real-time Memory Report at c_bands before calling an iterative solver
           709 MiB given to the printing process from OS
             0 MiB allocation reported by mallinfo(arena+hblkhd)
         25666 MiB available memory on the node where the printing process lives
------------------
     ethr =  5.43E-12,  avg # of iterations =  1.9

     negative rho (up, down):  8.320E-05 0.000E+00

     total cpu time spent up to now is      581.4 secs

     End of self-consistent calculation

          k = 0.0000 0.0000 0.0000 (  8201 PWs)   bands (ev):

   -65.3339 -39.7580 -39.4897 -39.3363 -21.3577 -20.3402 -20.0957  -7.8436
    -7.5346  -7.0300  -6.1726  -5.8546  -5.8396  -4.9134  -4.6203  -4.5026
    -2.7643  -0.8826  -0.0251   0.7009

     occupation numbers 
     1.0000   1.0000   1.0000   1.0000   1.0000   1.0000   1.0000   1.0000
     1.0000   1.0000   1.0000   1.0000   1.0000   1.0000   1.0000   1.0000
     0.1336   0.0000   0.0000   0.0000

          k = 0.0000 0.0000 0.0893 (  8209 PWs)   bands (ev):

   -65.3337 -39.7576 -39.4987 -39.3359 -21.2866 -20.3364 -20.0936  -8.1776
    -7.3314  -7.0211  -6.2998  -5.9393  -5.7012  -4.8810  -4.7955  -4.4448
    -2.6172  -0.8868  -0.3885   0.9450

     occupation numbers 
     1.0000   1.0000   1.0000   1.0000   1.0000   1.0000   1.0000   1.0000
     1.0000   1.0000   1.0000   1.0000   1.0000   1.0000   1.0000   1.0000
     0.0247   0.0000   0.0000   0.0000

          k = 0.0000 0.0000 0.1785 (  8200 PWs)   bands (ev):

   -65.3331 -39.7565 -39.5233 -39.3348 -21.0877 -20.3254 -20.0878  -8.6608
    -7.1963  -6.9922  -6.6501  -6.0067  -5.4795  -5.0700  -4.8135  -4.5352
    -2.2520  -0.9419  -0.6888   1.1489

     occupation numbers 
     1.0000   1.0000   1.0000   1.0000   1.0000   1.0000   1.0000   1.0000
     1.0000   1.0000   1.0000   1.0000   1.0000   1.0000   1.0000   1.0000
     0.0000   0.0000   0.0000   0.0000

          k = 0.0000 0.0000 0.2678 (  8194 PWs)   bands (ev):

   -65.3322 -39.7549 -39.5565 -39.3333 -20.8062 -20.3059 -20.0799  -9.1174
    -7.2837  -6.9816  -6.9269  -6.1679  -5.3929  -5.2289  -4.7684  -4.7148
    -1.8450  -0.9248  -0.6248   1.2396

     occupation numbers 
     1.0000   1.0000   1.0000   1.0000   1.0000   1.0000   1.0000   1.0000
     1.0000   1.0000   1.0000   1.0000   1.0000   1.0000   1.0000   1.0000
     0.0000   0.0000   0.0000   0.0000

          k = 0.0000 0.0000 0.3571 (  8186 PWs)   bands (ev):

   -65.3314 -39.7532 -39.5895 -39.3318 -20.5268 -20.2651 -20.0721  -9.4960
    -7.6320  -7.0202  -6.9303  -6.4372  -5.5364  -5.1306  -4.9002  -4.7195
    -1.4592  -0.8425  -0.3096   1.2721

     occupation numbers 
     1.0000   1.0000   1.0000   1.0000   1.0000   1.0000   1.0000   1.0000
     1.0000   1.0000   1.0000   1.0000   1.0000   1.0000   1.0000   1.0000
     0.0000   0.0000   0.0000   0.0000

          k = 0.0000 0.0000 0.4464 (  8184 PWs)   bands (ev):

   -65.3308 -39.7519 -39.6135 -39.3307 -20.3833 -20.1595 -20.0665  -9.7548
    -7.9327  -7.0375  -6.9552  -6.6310  -5.5933  -5.1417  -4.9220  -4.7378
    -1.1329  -0.7951   0.0577   1.2670

     occupation numbers 
     1.0000   1.0000   1.0000   1.0000   1.0000   1.0000   1.0000   1.0000
     1.0000   1.0000   1.0000   1.0000   1.0000   1.0000   1.0000   1.0000
     0.0000   0.0000   0.0000   0.0000

          k = 0.0000 0.0000-0.5356 (  8164 PWs)   bands (ev):

   -65.3305 -39.7514 -39.6223 -39.3303 -20.3578 -20.0892 -20.0654  -9.8488
    -8.0470  -7.0580  -6.9710  -6.6806  -5.6070  -5.1687  -4.9000  -4.7566
    -1.0055  -0.7687   0.2252   1.2536

     occupation numbers 
     1.0000   1.0000   1.0000   1.0000   1.0000   1.0000   1.0000   1.0000
     1.0000   1.0000   1.0000   1.0000   1.0000   1.0000   1.0000   1.0000
     0.0000   0.0000   0.0000   0.0000

          k = 0.0000 0.0715 0.0000 (  8205 PWs)   bands (ev):

   -65.3339 -39.7580 -39.4897 -39.3363 -21.3577 -20.3402 -20.0957  -7.8436
    -7.5346  -7.0300  -6.1726  -5.8546  -5.8396  -4.9134  -4.6203  -4.5026
    -2.7643  -0.8826  -0.0251   0.7010

     occupation numbers 
     1.0000   1.0000   1.0000   1.0000   1.0000   1.0000   1.0000   1.0000
     1.0000   1.0000   1.0000   1.0000   1.0000   1.0000   1.0000   1.0000
     0.1336   0.0000   0.0000   0.0000

          k = 0.0000 0.0715 0.0893 (  8197 PWs)   bands (ev):

   -65.3337 -39.7576 -39.4987 -39.3359 -21.2866 -20.3364 -20.0936  -8.1776
    -7.3314  -7.0211  -6.2998  -5.9393  -5.7012  -4.8810  -4.7955  -4.4448
    -2.6172  -0.8868  -0.3885   0.9452

     occupation numbers 
     1.0000   1.0000   1.0000   1.0000   1.0000   1.0000   1.0000   1.0000
     1.0000   1.0000   1.0000   1.0000   1.0000   1.0000   1.0000   1.0000
     0.0247   0.0000   0.0000   0.0000

          k = 0.0000 0.0715 0.1785 (  8203 PWs)   bands (ev):

   -65.3331 -39.7565 -39.5233 -39.3348 -21.0877 -20.3254 -20.0878  -8.6608
    -7.1963  -6.9922  -6.6501  -6.0067  -5.4795  -5.0700  -4.8135  -4.5352
    -2.2520  -0.9419  -0.6888   1.1493

     occupation numbers 
     1.0000   1.0000   1.0000   1.0000   1.0000   1.0000   1.0000   1.0000
     1.0000   1.0000   1.0000   1.0000   1.0000   1.0000   1.0000   1.0000
     0.0000   0.0000   0.0000   0.0000

          k = 0.0000 0.0715 0.2678 (  8210 PWs)   bands (ev):

   -65.3322 -39.7549 -39.5565 -39.3333 -20.8062 -20.3059 -20.0800  -9.1174
    -7.2837  -6.9816  -6.9269  -6.1679  -5.3929  -5.2289  -4.7684  -4.7148
    -1.8450  -0.9248  -0.6248   1.2399

     occupation numbers 
     1.0000   1.0000   1.0000   1.0000   1.0000   1.0000   1.0000   1.0000
     1.0000   1.0000   1.0000   1.0000   1.0000   1.0000   1.0000   1.0000
     0.0000   0.0000   0.0000   0.0000

          k = 0.0000 0.0715 0.3571 (  8180 PWs)   bands (ev):

   -65.3314 -39.7532 -39.5895 -39.3318 -20.5268 -20.2651 -20.0721  -9.4960
    -7.6320  -7.0202  -6.9303  -6.4372  -5.5364  -5.1306  -4.9002  -4.7195
    -1.4592  -0.8425  -0.3096   1.2722

     occupation numbers 
     1.0000   1.0000   1.0000   1.0000   1.0000   1.0000   1.0000   1.0000
     1.0000   1.0000   1.0000   1.0000   1.0000   1.0000   1.0000   1.0000
     0.0000   0.0000   0.0000   0.0000

          k = 0.0000 0.0715 0.4464 (  8175 PWs)   bands (ev):

   -65.3308 -39.7519 -39.6135 -39.3307 -20.3833 -20.1595 -20.0665  -9.7548
    -7.9327  -7.0375  -6.9552  -6.6310  -5.5933  -5.1417  -4.9220  -4.7378
    -1.1329  -0.7951   0.0577   1.2670

     occupation numbers 
     1.0000   1.0000   1.0000   1.0000   1.0000   1.0000   1.0000   1.0000
     1.0000   1.0000   1.0000   1.0000   1.0000   1.0000   1.0000   1.0000
     0.0000   0.0000   0.0000   0.0000

          k = 0.0000 0.0715-0.5356 (  8178 PWs)   bands (ev):

   -65.3305 -39.7514 -39.6223 -39.3303 -20.3578 -20.0892 -20.0654  -9.8488
    -8.0470  -7.0580  -6.9710  -6.6806  -5.6070  -5.1687  -4.9000  -4.7566
    -1.0055  -0.7687   0.2252   1.2536

     occupation numbers 
     1.0000   1.0000   1.0000   1.0000   1.0000   1.0000   1.0000   1.0000
     1.0000   1.0000   1.0000   1.0000   1.0000   1.0000   1.0000   1.0000
     0.0000   0.0000   0.0000   0.0000

          k = 0.0000-0.1430 0.0000 (  8170 PWs)   bands (ev):

   -65.3339 -39.7580 -39.4897 -39.3363 -21.3577 -20.3402 -20.0956  -7.8436
    -7.5346  -7.0300  -6.1726  -5.8546  -5.8396  -4.9134  -4.6203  -4.5026
    -2.7643  -0.8826  -0.0251   0.7011

     occupation numbers 
     1.0000   1.0000   1.0000   1.0000   1.0000   1.0000   1.0000   1.0000
     1.0000   1.0000   1.0000   1.0000   1.0000   1.0000   1.0000   1.0000
     0.1336   0.0000   0.0000   0.0000

          k = 0.0000-0.1430 0.0893 (  8174 PWs)   bands (ev):

   -65.3337 -39.7576 -39.4987 -39.3359 -21.2866 -20.3364 -20.0936  -8.1776
    -7.3314  -7.0211  -6.2998  -5.9393  -5.7012  -4.8810  -4.7955  -4.4448
    -2.6172  -0.8868  -0.3885   0.9455

     occupation numbers 
     1.0000   1.0000   1.0000   1.0000   1.0000   1.0000   1.0000   1.0000
     1.0000   1.0000   1.0000   1.0000   1.0000   1.0000   1.0000   1.0000
     0.0247   0.0000   0.0000   0.0000

          k = 0.0000-0.1430 0.1785 (  8208 PWs)   bands (ev):

   -65.3331 -39.7565 -39.5233 -39.3348 -21.0877 -20.3254 -20.0878  -8.6608
    -7.1963  -6.9922  -6.6501  -6.0067  -5.4795  -5.0700  -4.8135  -4.5352
    -2.2520  -0.9419  -0.6888   1.1497

     occupation numbers 
     1.0000   1.0000   1.0000   1.0000   1.0000   1.0000   1.0000   1.0000
     1.0000   1.0000   1.0000   1.0000   1.0000   1.0000   1.0000   1.0000
     0.0000   0.0000   0.0000   0.0000

          k = 0.0000-0.1430 0.2678 (  8224 PWs)   bands (ev):

   -65.3322 -39.7549 -39.5565 -39.3333 -20.8062 -20.3059 -20.0800  -9.1174
    -7.2837  -6.9816  -6.9269  -6.1679  -5.3929  -5.2289  -4.7684  -4.7148
    -1.8450  -0.9248  -0.6248   1.2401

     occupation numbers 
     1.0000   1.0000   1.0000   1.0000   1.0000   1.0000   1.0000   1.0000
     1.0000   1.0000   1.0000   1.0000   1.0000   1.0000   1.0000   1.0000
     0.0000   0.0000   0.0000   0.0000

          k = 0.0000-0.1430 0.3571 (  8190 PWs)   bands (ev):

   -65.3314 -39.7532 -39.5895 -39.3318 -20.5268 -20.2651 -20.0721  -9.4960
    -7.6320  -7.0202  -6.9303  -6.4372  -5.5364  -5.1306  -4.9002  -4.7195
    -1.4592  -0.8425  -0.3096   1.2723

     occupation numbers 
     1.0000   1.0000   1.0000   1.0000   1.0000   1.0000   1.0000   1.0000
     1.0000   1.0000   1.0000   1.0000   1.0000   1.0000   1.0000   1.0000
     0.0000   0.0000   0.0000   0.0000

          k = 0.0000-0.1430 0.4464 (  8184 PWs)   bands (ev):

   -65.3308 -39.7519 -39.6135 -39.3307 -20.3833 -20.1595 -20.0665  -9.7548
    -7.9327  -7.0375  -6.9552  -6.6310  -5.5933  -5.1417  -4.9220  -4.7378
    -1.1329  -0.7951   0.0577   1.2671

     occupation numbers 
     1.0000   1.0000   1.0000   1.0000   1.0000   1.0000   1.0000   1.0000
     1.0000   1.0000   1.0000   1.0000   1.0000   1.0000   1.0000   1.0000
     0.0000   0.0000   0.0000   0.0000

          k = 0.0000-0.1430-0.5356 (  8164 PWs)   bands (ev):

   -65.3305 -39.7514 -39.6223 -39.3303 -20.3578 -20.0892 -20.0654  -9.8488
    -8.0470  -7.0580  -6.9710  -6.6806  -5.6070  -5.1687  -4.9000  -4.7566
    -1.0055  -0.7687   0.2252   1.2536

     occupation numbers 
     1.0000   1.0000   1.0000   1.0000   1.0000   1.0000   1.0000   1.0000
     1.0000   1.0000   1.0000   1.0000   1.0000   1.0000   1.0000   1.0000
     0.0000   0.0000   0.0000   0.0000

          k = 0.0909 0.0000 0.0000 (  8203 PWs)   bands (ev):

   -65.3338 -39.7578 -39.4895 -39.3411 -21.3501 -20.2898 -20.0869  -7.8447
    -7.5861  -7.1484  -6.3341  -5.9105  -5.7936  -4.9288  -4.6565  -4.6174
    -2.5288  -0.9776  -0.0224   1.0684

     occupation numbers 
     1.0000   1.0000   1.0000   1.0000   1.0000   1.0000   1.0000   1.0000
     1.0000   1.0000   1.0000   1.0000   1.0000   1.0000   1.0000   1.0000
     0.0069   0.0000   0.0000   0.0000

          k = 0.0909 0.0000 0.0893 (  8212 PWs)   bands (ev):

   -65.3336 -39.7574 -39.4986 -39.3407 -21.2787 -20.2863 -20.0848  -8.1780
    -7.4444  -7.0779  -6.4063  -6.0393  -5.6779  -4.9844  -4.7679  -4.4861
    -2.4187  -0.9811  -0.3421   1.2432

     occupation numbers 
     1.0000   1.0000   1.0000   1.0000   1.0000   1.0000   1.0000   1.0000
     1.0000   1.0000   1.0000   1.0000   1.0000   1.0000   1.0000   1.0000
     0.0010   0.0000   0.0000   0.0000

          k = 0.0909 0.0000 0.1785 (  8192 PWs)   bands (ev):

   -65.3330 -39.7563 -39.5231 -39.3395 -21.0786 -20.2763 -20.0789  -8.6616
    -7.3867  -6.9773  -6.7124  -6.1205  -5.4987  -5.2441  -4.7240  -4.4696
    -2.1290  -1.0003  -0.6673   1.3932

     occupation numbers 
     1.0000   1.0000   1.0000   1.0000   1.0000   1.0000   1.0000   1.0000
     1.0000   1.0000   1.0000   1.0000   1.0000   1.0000   1.0000   1.0000
     0.0000   0.0000   0.0000   0.0000

          k = 0.0909 0.0000 0.2678 (  8188 PWs)   bands (ev):

   -65.3322 -39.7547 -39.5563 -39.3380 -20.7938 -20.2602 -20.0710  -9.1191
    -7.4248  -7.1273  -6.8639  -6.2686  -5.6541  -5.1960  -4.6705  -4.5819
    -1.7898  -0.9482  -0.6349   1.4687

     occupation numbers 
     1.0000   1.0000   1.0000   1.0000   1.0000   1.0000   1.0000   1.0000
     1.0000   1.0000   1.0000   1.0000   1.0000   1.0000   1.0000   1.0000
     0.0000   0.0000   0.0000   0.0000

          k = 0.0909 0.0000 0.3571 (  8193 PWs)   bands (ev):

   -65.3313 -39.7530 -39.5893 -39.3365 -20.5019 -20.2316 -20.0631  -9.4977
    -7.6813  -7.2403  -6.8870  -6.5593  -5.7852  -5.0580  -4.7246  -4.6514
    -1.4576  -0.8641  -0.3116   1.4794

     occupation numbers 
     1.0000   1.0000   1.0000   1.0000   1.0000   1.0000   1.0000   1.0000
     1.0000   1.0000   1.0000   1.0000   1.0000   1.0000   1.0000   1.0000
     0.0000   0.0000   0.0000   0.0000

          k = 0.0909 0.0000 0.4464 (  8190 PWs)   bands (ev):

   -65.3307 -39.7517 -39.6133 -39.3354 -20.3306 -20.1533 -20.0578  -9.7559
    -7.9539  -7.2422  -7.0401  -6.6902  -5.8152  -5.0017  -4.7918  -4.6760
    -1.1851  -0.7944   0.0608   1.4201

     occupation numbers 
     1.0000   1.0000   1.0000   1.0000   1.0000   1.0000   1.0000   1.0000
     1.0000   1.0000   1.0000   1.0000   1.0000   1.0000   1.0000   1.0000
     0.0000   0.0000   0.0000   0.0000

          k = 0.0909 0.0000-0.5356 (  8202 PWs)   bands (ev):

   -65.3305 -39.7512 -39.6221 -39.3351 -20.2996 -20.0876 -20.0577  -9.8495
    -8.0606  -7.2290  -7.1387  -6.7045  -5.8199  -5.0020  -4.7889  -4.6989
    -1.0891  -0.7488   0.2312   1.3631

     occupation numbers 
     1.0000   1.0000   1.0000   1.0000   1.0000   1.0000   1.0000   1.0000
     1.0000   1.0000   1.0000   1.0000   1.0000   1.0000   1.0000   1.0000
     0.0000   0.0000   0.0000   0.0000

          k = 0.0909 0.0715 0.0000 (  8186 PWs)   bands (ev):

   -65.3338 -39.7578 -39.4895 -39.3411 -21.3501 -20.2897 -20.0869  -7.8447
    -7.5861  -7.1484  -6.3341  -5.9105  -5.7936  -4.9288  -4.6565  -4.6174
    -2.5288  -0.9776  -0.0224   1.0689

     occupation numbers 
     1.0000   1.0000   1.0000   1.0000   1.0000   1.0000   1.0000   1.0000
     1.0000   1.0000   1.0000   1.0000   1.0000   1.0000   1.0000   1.0000
     0.0069   0.0000   0.0000   0.0000

          k = 0.0909 0.0715 0.0893 (  8193 PWs)   bands (ev):

   -65.3336 -39.7574 -39.4986 -39.3407 -21.2787 -20.2863 -20.0847  -8.1780
    -7.4444  -7.0779  -6.4063  -6.0393  -5.6779  -4.9844  -4.7679  -4.4861
    -2.4187  -0.9811  -0.3421   1.2443

     occupation numbers 
     1.0000   1.0000   1.0000   1.0000   1.0000   1.0000   1.0000   1.0000
     1.0000   1.0000   1.0000   1.0000   1.0000   1.0000   1.0000   1.0000
     0.0010   0.0000   0.0000   0.0000

          k = 0.0909 0.0715 0.1785 (  8200 PWs)   bands (ev):

   -65.3330 -39.7563 -39.5231 -39.3395 -21.0786 -20.2763 -20.0789  -8.6616
    -7.3867  -6.9773  -6.7124  -6.1205  -5.4987  -5.2441  -4.7240  -4.4696
    -2.1290  -1.0003  -0.6673   1.3945

     occupation numbers 
     1.0000   1.0000   1.0000   1.0000   1.0000   1.0000   1.0000   1.0000
     1.0000   1.0000   1.0000   1.0000   1.0000   1.0000   1.0000   1.0000
     0.0000   0.0000   0.0000   0.0000

          k = 0.0909 0.0715 0.2678 (  8197 PWs)   bands (ev):

   -65.3322 -39.7547 -39.5563 -39.3380 -20.7938 -20.2602 -20.0710  -9.1191
    -7.4248  -7.1273  -6.8639  -6.2686  -5.6541  -5.1960  -4.6705  -4.5819
    -1.7898  -0.9482  -0.6349   1.4695

     occupation numbers 
     1.0000   1.0000   1.0000   1.0000   1.0000   1.0000   1.0000   1.0000
     1.0000   1.0000   1.0000   1.0000   1.0000   1.0000   1.0000   1.0000
     0.0000   0.0000   0.0000   0.0000

          k = 0.0909 0.0715 0.3571 (  8189 PWs)   bands (ev):

   -65.3313 -39.7530 -39.5893 -39.3365 -20.5019 -20.2316 -20.0631  -9.4977
    -7.6813  -7.2403  -6.8870  -6.5593  -5.7852  -5.0580  -4.7246  -4.6514
    -1.4576  -0.8641  -0.3116   1.4798

     occupation numbers 
     1.0000   1.0000   1.0000   1.0000   1.0000   1.0000   1.0000   1.0000
     1.0000   1.0000   1.0000   1.0000   1.0000   1.0000   1.0000   1.0000
     0.0000   0.0000   0.0000   0.0000

          k = 0.0909 0.0715 0.4464 (  8184 PWs)   bands (ev):

   -65.3307 -39.7517 -39.6133 -39.3354 -20.3306 -20.1533 -20.0578  -9.7559
    -7.9539  -7.2422  -7.0401  -6.6902  -5.8152  -5.0017  -4.7918  -4.6760
    -1.1851  -0.7944   0.0608   1.4202

     occupation numbers 
     1.0000   1.0000   1.0000   1.0000   1.0000   1.0000   1.0000   1.0000
     1.0000   1.0000   1.0000   1.0000   1.0000   1.0000   1.0000   1.0000
     0.0000   0.0000   0.0000   0.0000

          k = 0.0909 0.0715-0.5356 (  8192 PWs)   bands (ev):

   -65.3305 -39.7512 -39.6221 -39.3351 -20.2996 -20.0875 -20.0577  -9.8495
    -8.0606  -7.2290  -7.1387  -6.7045  -5.8199  -5.0020  -4.7889  -4.6989
    -1.0891  -0.7488   0.2312   1.3632

     occupation numbers 
     1.0000   1.0000   1.0000   1.0000   1.0000   1.0000   1.0000   1.0000
     1.0000   1.0000   1.0000   1.0000   1.0000   1.0000   1.0000   1.0000
     0.0000   0.0000   0.0000   0.0000

          k = 0.0909-0.1430 0.0000 (  8182 PWs)   bands (ev):

   -65.3338 -39.7578 -39.4895 -39.3411 -21.3501 -20.2897 -20.0869  -7.8447
    -7.5861  -7.1484  -6.3341  -5.9105  -5.7936  -4.9288  -4.6565  -4.6174
    -2.5288  -0.9776  -0.0224   1.0692

     occupation numbers 
     1.0000   1.0000   1.0000   1.0000   1.0000   1.0000   1.0000   1.0000
     1.0000   1.0000   1.0000   1.0000   1.0000   1.0000   1.0000   1.0000
     0.0069   0.0000   0.0000   0.0000

          k = 0.0909-0.1430 0.0893 (  8182 PWs)   bands (ev):

   -65.3336 -39.7574 -39.4986 -39.3407 -21.2787 -20.2863 -20.0847  -8.1780
    -7.4444  -7.0779  -6.4063  -6.0393  -5.6779  -4.9844  -4.7679  -4.4861
    -2.4187  -0.9811  -0.3421   1.2451

     occupation numbers 
     1.0000   1.0000   1.0000   1.0000   1.0000   1.0000   1.0000   1.0000
     1.0000   1.0000   1.0000   1.0000   1.0000   1.0000   1.0000   1.0000
     0.0010   0.0000   0.0000   0.0000

          k = 0.0909-0.1430 0.1785 (  8196 PWs)   bands (ev):

   -65.3330 -39.7563 -39.5231 -39.3395 -21.0786 -20.2763 -20.0789  -8.6616
    -7.3867  -6.9773  -6.7124  -6.1205  -5.4987  -5.2441  -4.7240  -4.4696
    -2.1290  -1.0003  -0.6673   1.3955

     occupation numbers 
     1.0000   1.0000   1.0000   1.0000   1.0000   1.0000   1.0000   1.0000
     1.0000   1.0000   1.0000   1.0000   1.0000   1.0000   1.0000   1.0000
     0.0000   0.0000   0.0000   0.0000

          k = 0.0909-0.1430 0.2678 (  8210 PWs)   bands (ev):

   -65.3322 -39.7547 -39.5563 -39.3380 -20.7938 -20.2602 -20.0710  -9.1191
    -7.4248  -7.1273  -6.8639  -6.2686  -5.6541  -5.1960  -4.6705  -4.5819
    -1.7898  -0.9482  -0.6349   1.4700

     occupation numbers 
     1.0000   1.0000   1.0000   1.0000   1.0000   1.0000   1.0000   1.0000
     1.0000   1.0000   1.0000   1.0000   1.0000   1.0000   1.0000   1.0000
     0.0000   0.0000   0.0000   0.0000

          k = 0.0909-0.1430 0.3571 (  8182 PWs)   bands (ev):

   -65.3313 -39.7530 -39.5893 -39.3365 -20.5019 -20.2316 -20.0631  -9.4977
    -7.6813  -7.2403  -6.8870  -6.5593  -5.7852  -5.0580  -4.7246  -4.6514
    -1.4576  -0.8641  -0.3116   1.4800

     occupation numbers 
     1.0000   1.0000   1.0000   1.0000   1.0000   1.0000   1.0000   1.0000
     1.0000   1.0000   1.0000   1.0000   1.0000   1.0000   1.0000   1.0000
     0.0000   0.0000   0.0000   0.0000

          k = 0.0909-0.1430 0.4464 (  8196 PWs)   bands (ev):

   -65.3307 -39.7517 -39.6133 -39.3354 -20.3306 -20.1533 -20.0578  -9.7559
    -7.9539  -7.2422  -7.0401  -6.6902  -5.8152  -5.0017  -4.7918  -4.6760
    -1.1851  -0.7944   0.0608   1.4203

     occupation numbers 
     1.0000   1.0000   1.0000   1.0000   1.0000   1.0000   1.0000   1.0000
     1.0000   1.0000   1.0000   1.0000   1.0000   1.0000   1.0000   1.0000
     0.0000   0.0000   0.0000   0.0000

          k = 0.0909-0.1430-0.5356 (  8180 PWs)   bands (ev):

   -65.3305 -39.7512 -39.6221 -39.3351 -20.2996 -20.0875 -20.0577  -9.8495
    -8.0606  -7.2290  -7.1387  -6.7045  -5.8199  -5.0020  -4.7889  -4.6989
    -1.0891  -0.7488   0.2312   1.3632

     occupation numbers 
     1.0000   1.0000   1.0000   1.0000   1.0000   1.0000   1.0000   1.0000
     1.0000   1.0000   1.0000   1.0000   1.0000   1.0000   1.0000   1.0000
     0.0000   0.0000   0.0000   0.0000

          k = 0.1818 0.0000 0.0000 (  8173 PWs)   bands (ev):

   -65.3336 -39.7574 -39.4891 -39.3538 -21.3321 -20.1816 -20.0280  -7.8541
    -7.8482  -7.3107  -6.7216  -6.0670  -5.7522  -5.1682  -4.8048  -4.4958
    -2.0070  -0.9722  -0.0137   1.5050

     occupation numbers 
     1.0000   1.0000   1.0000   1.0000   1.0000   1.0000   1.0000   1.0000
     1.0000   1.0000   1.0000   1.0000   1.0000   1.0000   1.0000   1.0000
     0.0000   0.0000   0.0000   0.0000

          k = 0.1818 0.0000 0.0893 (  8189 PWs)   bands (ev):

   -65.3334 -39.7570 -39.4981 -39.3534 -21.2602 -20.1789 -20.0256  -8.1802
    -7.8215  -7.1249  -6.7278  -6.2929  -5.6582  -5.2146  -4.7254  -4.4656
    -1.9433  -0.9707  -0.3013   1.5516

     occupation numbers 
     1.0000   1.0000   1.0000   1.0000   1.0000   1.0000   1.0000   1.0000
     1.0000   1.0000   1.0000   1.0000   1.0000   1.0000   1.0000   1.0000
     0.0000   0.0000   0.0000   0.0000

          k = 0.1818 0.0000 0.1785 (  8184 PWs)   bands (ev):

   -65.3328 -39.7559 -39.5226 -39.3522 -21.0581 -20.1713 -20.0190  -8.6665
    -7.8136  -7.0122  -6.8647  -6.4914  -5.6743  -5.3288  -4.5494  -4.4019
    -1.7776  -0.9648  -0.6418   1.6243

     occupation numbers 
     1.0000   1.0000   1.0000   1.0000   1.0000   1.0000   1.0000   1.0000
     1.0000   1.0000   1.0000   1.0000   1.0000   1.0000   1.0000   1.0000
     0.0000   0.0000   0.0000   0.0000

          k = 0.1818 0.0000 0.2678 (  8194 PWs)   bands (ev):

   -65.3319 -39.7543 -39.5558 -39.3507 -20.7681 -20.1605 -20.0104  -9.1265
    -7.8137  -7.3368  -6.8566  -6.5255  -6.1338  -5.1347  -4.4802  -4.3493
    -1.5920  -0.8884  -0.6262   1.6642

     occupation numbers 
     1.0000   1.0000   1.0000   1.0000   1.0000   1.0000   1.0000   1.0000
     1.0000   1.0000   1.0000   1.0000   1.0000   1.0000   1.0000   1.0000
     0.0000   0.0000   0.0000   0.0000

          k = 0.1818 0.0000 0.3571 (  8195 PWs)   bands (ev):

   -65.3311 -39.7526 -39.5887 -39.3491 -20.4592 -20.1483 -20.0026  -9.5043
    -7.8786  -7.6015  -6.9516  -6.7546  -6.3201  -4.9736  -4.4941  -4.3442
    -1.3762  -0.8091  -0.2915   1.6169

     occupation numbers 
     1.0000   1.0000   1.0000   1.0000   1.0000   1.0000   1.0000   1.0000
     1.0000   1.0000   1.0000   1.0000   1.0000   1.0000   1.0000   1.0000
     0.0000   0.0000   0.0000   0.0000

          k = 0.1818 0.0000 0.4464 (  8201 PWs)   bands (ev):

   -65.3305 -39.7513 -39.6128 -39.3481 -20.2264 -20.1277 -20.0006  -9.7602
    -8.0467  -7.6394  -7.3272  -6.7736  -6.3190  -4.8870  -4.5311  -4.3599
    -1.1757  -0.7321   0.0816   1.4847

     occupation numbers 
     1.0000   1.0000   1.0000   1.0000   1.0000   1.0000   1.0000   1.0000
     1.0000   1.0000   1.0000   1.0000   1.0000   1.0000   1.0000   1.0000
     0.0000   0.0000   0.0000   0.0000

          k = 0.1818 0.0000-0.5356 (  8206 PWs)   bands (ev):

   -65.3302 -39.7508 -39.6215 -39.3477 -20.1684 -20.0830 -20.0063  -9.8525
    -8.1269  -7.5745  -7.5345  -6.7708  -6.3136  -4.8613  -4.5471  -4.3690
    -1.1028  -0.6849   0.2523   1.3954

     occupation numbers 
     1.0000   1.0000   1.0000   1.0000   1.0000   1.0000   1.0000   1.0000
     1.0000   1.0000   1.0000   1.0000   1.0000   1.0000   1.0000   1.0000
     0.0000   0.0000   0.0000   0.0000

          k = 0.1818 0.0715 0.0000 (  8175 PWs)   bands (ev):

   -65.3336 -39.7574 -39.4891 -39.3538 -21.3321 -20.1816 -20.0280  -7.8541
    -7.8482  -7.3107  -6.7216  -6.0670  -5.7522  -5.1682  -4.8048  -4.4958
    -2.0070  -0.9722  -0.0137   1.5076

     occupation numbers 
     1.0000   1.0000   1.0000   1.0000   1.0000   1.0000   1.0000   1.0000
     1.0000   1.0000   1.0000   1.0000   1.0000   1.0000   1.0000   1.0000
     0.0000   0.0000   0.0000   0.0000

          k = 0.1818 0.0715 0.0893 (  8179 PWs)   bands (ev):

   -65.3334 -39.7570 -39.4981 -39.3534 -21.2602 -20.1789 -20.0256  -8.1802
    -7.8215  -7.1249  -6.7278  -6.2929  -5.6582  -5.2146  -4.7254  -4.4656
    -1.9433  -0.9707  -0.3013   1.5543

     occupation numbers 
     1.0000   1.0000   1.0000   1.0000   1.0000   1.0000   1.0000   1.0000
     1.0000   1.0000   1.0000   1.0000   1.0000   1.0000   1.0000   1.0000
     0.0000   0.0000   0.0000   0.0000

          k = 0.1818 0.0715 0.1785 (  8182 PWs)   bands (ev):

   -65.3328 -39.7559 -39.5226 -39.3522 -21.0581 -20.1713 -20.0190  -8.6665
    -7.8136  -7.0122  -6.8647  -6.4914  -5.6743  -5.3288  -4.5494  -4.4019
    -1.7776  -0.9648  -0.6418   1.6263

     occupation numbers 
     1.0000   1.0000   1.0000   1.0000   1.0000   1.0000   1.0000   1.0000
     1.0000   1.0000   1.0000   1.0000   1.0000   1.0000   1.0000   1.0000
     0.0000   0.0000   0.0000   0.0000

          k = 0.1818 0.0715 0.2678 (  8194 PWs)   bands (ev):

   -65.3319 -39.7543 -39.5558 -39.3507 -20.7681 -20.1605 -20.0104  -9.1265
    -7.8137  -7.3368  -6.8566  -6.5255  -6.1338  -5.1347  -4.4802  -4.3493
    -1.5920  -0.8884  -0.6262   1.6652

     occupation numbers 
     1.0000   1.0000   1.0000   1.0000   1.0000   1.0000   1.0000   1.0000
     1.0000   1.0000   1.0000   1.0000   1.0000   1.0000   1.0000   1.0000
     0.0000   0.0000   0.0000   0.0000

          k = 0.1818 0.0715 0.3571 (  8195 PWs)   bands (ev):

   -65.3311 -39.7526 -39.5887 -39.3491 -20.4592 -20.1483 -20.0026  -9.5043
    -7.8786  -7.6015  -6.9516  -6.7546  -6.3201  -4.9736  -4.4941  -4.3442
    -1.3763  -0.8091  -0.2915   1.6173

     occupation numbers 
     1.0000   1.0000   1.0000   1.0000   1.0000   1.0000   1.0000   1.0000
     1.0000   1.0000   1.0000   1.0000   1.0000   1.0000   1.0000   1.0000
     0.0000   0.0000   0.0000   0.0000

          k = 0.1818 0.0715 0.4464 (  8199 PWs)   bands (ev):

   -65.3305 -39.7513 -39.6128 -39.3481 -20.2264 -20.1277 -20.0006  -9.7602
    -8.0467  -7.6394  -7.3272  -6.7736  -6.3190  -4.8870  -4.5311  -4.3599
    -1.1757  -0.7321   0.0816   1.4849

     occupation numbers 
     1.0000   1.0000   1.0000   1.0000   1.0000   1.0000   1.0000   1.0000
     1.0000   1.0000   1.0000   1.0000   1.0000   1.0000   1.0000   1.0000
     0.0000   0.0000   0.0000   0.0000

          k = 0.1818 0.0715-0.5356 (  8202 PWs)   bands (ev):

   -65.3302 -39.7508 -39.6215 -39.3477 -20.1684 -20.0830 -20.0063  -9.8525
    -8.1269  -7.5745  -7.5345  -6.7708  -6.3136  -4.8613  -4.5471  -4.3690
    -1.1028  -0.6849   0.2523   1.3955

     occupation numbers 
     1.0000   1.0000   1.0000   1.0000   1.0000   1.0000   1.0000   1.0000
     1.0000   1.0000   1.0000   1.0000   1.0000   1.0000   1.0000   1.0000
     0.0000   0.0000   0.0000   0.0000

          k = 0.1818-0.1430 0.0000 (  8166 PWs)   bands (ev):

   -65.3336 -39.7574 -39.4891 -39.3538 -21.3321 -20.1816 -20.0280  -7.8541
    -7.8482  -7.3107  -6.7216  -6.0670  -5.7522  -5.1682  -4.8048  -4.4958
    -2.0070  -0.9722  -0.0137   1.5097

     occupation numbers 
     1.0000   1.0000   1.0000   1.0000   1.0000   1.0000   1.0000   1.0000
     1.0000   1.0000   1.0000   1.0000   1.0000   1.0000   1.0000   1.0000
     0.0000   0.0000   0.0000   0.0000

          k = 0.1818-0.1430 0.0893 (  8172 PWs)   bands (ev):

   -65.3334 -39.7570 -39.4981 -39.3534 -21.2602 -20.1789 -20.0256  -8.1802
    -7.8215  -7.1249  -6.7278  -6.2929  -5.6582  -5.2146  -4.7254  -4.4656
    -1.9433  -0.9707  -0.3013   1.5564

     occupation numbers 
     1.0000   1.0000   1.0000   1.0000   1.0000   1.0000   1.0000   1.0000
     1.0000   1.0000   1.0000   1.0000   1.0000   1.0000   1.0000   1.0000
     0.0000   0.0000   0.0000   0.0000

          k = 0.1818-0.1430 0.1785 (  8174 PWs)   bands (ev):

   -65.3328 -39.7559 -39.5226 -39.3522 -21.0581 -20.1713 -20.0190  -8.6665
    -7.8136  -7.0122  -6.8647  -6.4914  -5.6743  -5.3288  -4.5494  -4.4019
    -1.7776  -0.9648  -0.6418   1.6278

     occupation numbers 
     1.0000   1.0000   1.0000   1.0000   1.0000   1.0000   1.0000   1.0000
     1.0000   1.0000   1.0000   1.0000   1.0000   1.0000   1.0000   1.0000
     0.0000   0.0000   0.0000   0.0000

          k = 0.1818-0.1430 0.2678 (  8188 PWs)   bands (ev):

   -65.3319 -39.7543 -39.5558 -39.3507 -20.7681 -20.1605 -20.0104  -9.1265
    -7.8137  -7.3368  -6.8566  -6.5255  -6.1338  -5.1347  -4.4802  -4.3493
    -1.5920  -0.8884  -0.6262   1.6660

     occupation numbers 
     1.0000   1.0000   1.0000   1.0000   1.0000   1.0000   1.0000   1.0000
     1.0000   1.0000   1.0000   1.0000   1.0000   1.0000   1.0000   1.0000
     0.0000   0.0000   0.0000   0.0000

          k = 0.1818-0.1430 0.3571 (  8202 PWs)   bands (ev):

   -65.3311 -39.7526 -39.5887 -39.3491 -20.4592 -20.1483 -20.0026  -9.5043
    -7.8786  -7.6015  -6.9516  -6.7546  -6.3201  -4.9736  -4.4941  -4.3442
    -1.3763  -0.8091  -0.2915   1.6176

     occupation numbers 
     1.0000   1.0000   1.0000   1.0000   1.0000   1.0000   1.0000   1.0000
     1.0000   1.0000   1.0000   1.0000   1.0000   1.0000   1.0000   1.0000
     0.0000   0.0000   0.0000   0.0000

          k = 0.1818-0.1430 0.4464 (  8206 PWs)   bands (ev):

   -65.3305 -39.7513 -39.6128 -39.3481 -20.2264 -20.1277 -20.0006  -9.7602
    -8.0467  -7.6394  -7.3272  -6.7736  -6.3190  -4.8870  -4.5311  -4.3599
    -1.1757  -0.7321   0.0816   1.4849

     occupation numbers 
     1.0000   1.0000   1.0000   1.0000   1.0000   1.0000   1.0000   1.0000
     1.0000   1.0000   1.0000   1.0000   1.0000   1.0000   1.0000   1.0000
     0.0000   0.0000   0.0000   0.0000

          k = 0.1818-0.1430-0.5356 (  8200 PWs)   bands (ev):

   -65.3302 -39.7508 -39.6215 -39.3477 -20.1684 -20.0830 -20.0063  -9.8525
    -8.1269  -7.5745  -7.5345  -6.7708  -6.3136  -4.8613  -4.5471  -4.3690
    -1.1028  -0.6849   0.2523   1.3955

     occupation numbers 
     1.0000   1.0000   1.0000   1.0000   1.0000   1.0000   1.0000   1.0000
     1.0000   1.0000   1.0000   1.0000   1.0000   1.0000   1.0000   1.0000
     0.0000   0.0000   0.0000   0.0000

          k = 0.2727 0.0000 0.0000 (  8189 PWs)   bands (ev):

   -65.3333 -39.7568 -39.4884 -39.3703 -21.3128 -20.1346 -19.8378  -8.3722
    -7.8545  -7.3907  -7.1424  -6.2716  -5.7392  -5.3903  -4.9299  -4.3143
    -1.4362  -0.7416   0.0023   1.6768

     occupation numbers 
     1.0000   1.0000   1.0000   1.0000   1.0000   1.0000   1.0000   1.0000
     1.0000   1.0000   1.0000   1.0000   1.0000   1.0000   1.0000   1.0000
     0.0000   0.0000   0.0000   0.0000

          k = 0.2727 0.0000 0.0893 (  8173 PWs)   bands (ev):

   -65.3331 -39.7564 -39.4974 -39.3699 -21.2405 -20.1323 -19.8350  -8.3789
    -8.1726  -7.1902  -7.1158  -6.5588  -5.6566  -5.3383  -4.8434  -4.3038
    -1.3934  -0.7430  -0.2727   1.6981

     occupation numbers 
     1.0000   1.0000   1.0000   1.0000   1.0000   1.0000   1.0000   1.0000
     1.0000   1.0000   1.0000   1.0000   1.0000   1.0000   1.0000   1.0000
     0.0000   0.0000   0.0000   0.0000

          k = 0.2727 0.0000 0.1785 (  8173 PWs)   bands (ev):

   -65.3325 -39.7553 -39.5219 -39.3687 -21.0374 -20.1261 -19.8276  -8.6961
    -8.3369  -7.1900  -7.0976  -6.8242  -5.7897  -5.3194  -4.5165  -4.2728
    -1.3014  -0.7724  -0.5864   1.7320

     occupation numbers 
     1.0000   1.0000   1.0000   1.0000   1.0000   1.0000   1.0000   1.0000
     1.0000   1.0000   1.0000   1.0000   1.0000   1.0000   1.0000   1.0000
     0.0000   0.0000   0.0000   0.0000

          k = 0.2727 0.0000 0.2678 (  8169 PWs)   bands (ev):

   -65.3316 -39.7537 -39.5551 -39.3671 -20.7451 -20.1177 -19.8182  -9.1501
    -8.3229  -7.5811  -7.1067  -6.7434  -6.3555  -5.0955  -4.3396  -4.1480
    -1.2722  -0.6853  -0.5629   1.7246

     occupation numbers 
     1.0000   1.0000   1.0000   1.0000   1.0000   1.0000   1.0000   1.0000
     1.0000   1.0000   1.0000   1.0000   1.0000   1.0000   1.0000   1.0000
     0.0000   0.0000   0.0000   0.0000

          k = 0.2727 0.0000 0.3571 (  8198 PWs)   bands (ev):

   -65.3308 -39.7520 -39.5880 -39.3656 -20.4314 -20.1090 -19.8108  -9.5219
    -8.2995  -7.9267  -7.1273  -7.0042  -6.6227  -4.9315  -4.3280  -4.0068
    -1.1636  -0.6274  -0.2291   1.6299

     occupation numbers 
     1.0000   1.0000   1.0000   1.0000   1.0000   1.0000   1.0000   1.0000
     1.0000   1.0000   1.0000   1.0000   1.0000   1.0000   1.0000   1.0000
     0.0000   0.0000   0.0000   0.0000

          k = 0.2727 0.0000 0.4464 (  8186 PWs)   bands (ev):

   -65.3302 -39.7507 -39.6120 -39.3645 -20.1835 -20.1015 -19.8103  -9.7712
    -8.2837  -8.1267  -7.5322  -7.0591  -6.5969  -4.8512  -4.3360  -3.9484
    -0.9868  -0.5952   0.1314   1.4645

     occupation numbers 
     1.0000   1.0000   1.0000   1.0000   1.0000   1.0000   1.0000   1.0000
     1.0000   1.0000   1.0000   1.0000   1.0000   1.0000   1.0000   1.0000
     0.0000   0.0000   0.0000   0.0000

          k = 0.2727 0.0000-0.5356 (  8186 PWs)   bands (ev):

   -65.3299 -39.7502 -39.6208 -39.3641 -20.1070 -20.0770 -19.8139  -9.8605
    -8.2990  -8.1590  -7.7200  -7.0558  -6.5860  -4.8292  -4.3399  -3.9352
    -0.9050  -0.5781   0.2972   1.3635

     occupation numbers 
     1.0000   1.0000   1.0000   1.0000   1.0000   1.0000   1.0000   1.0000
     1.0000   1.0000   1.0000   1.0000   1.0000   1.0000   1.0000   1.0000
     0.0000   0.0000   0.0000   0.0000

          k = 0.2727 0.0715 0.0000 (  8167 PWs)   bands (ev):

   -65.3333 -39.7568 -39.4884 -39.3703 -21.3128 -20.1346 -19.8378  -8.3722
    -7.8545  -7.3907  -7.1424  -6.2716  -5.7392  -5.3903  -4.9299  -4.3143
    -1.4362  -0.7416   0.0024   1.6788

     occupation numbers 
     1.0000   1.0000   1.0000   1.0000   1.0000   1.0000   1.0000   1.0000
     1.0000   1.0000   1.0000   1.0000   1.0000   1.0000   1.0000   1.0000
     0.0000   0.0000   0.0000   0.0000

          k = 0.2727 0.0715 0.0893 (  8170 PWs)   bands (ev):

   -65.3331 -39.7564 -39.4974 -39.3699 -21.2405 -20.1323 -19.8350  -8.3789
    -8.1726  -7.1902  -7.1158  -6.5588  -5.6566  -5.3383  -4.8434  -4.3038
    -1.3934  -0.7430  -0.2727   1.6999

     occupation numbers 
     1.0000   1.0000   1.0000   1.0000   1.0000   1.0000   1.0000   1.0000
     1.0000   1.0000   1.0000   1.0000   1.0000   1.0000   1.0000   1.0000
     0.0000   0.0000   0.0000   0.0000

          k = 0.2727 0.0715 0.1785 (  8163 PWs)   bands (ev):

   -65.3325 -39.7553 -39.5219 -39.3687 -21.0374 -20.1261 -19.8276  -8.6961
    -8.3369  -7.1900  -7.0976  -6.8242  -5.7897  -5.3194  -4.5165  -4.2728
    -1.3014  -0.7724  -0.5864   1.7332

     occupation numbers 
     1.0000   1.0000   1.0000   1.0000   1.0000   1.0000   1.0000   1.0000
     1.0000   1.0000   1.0000   1.0000   1.0000   1.0000   1.0000   1.0000
     0.0000   0.0000   0.0000   0.0000

          k = 0.2727 0.0715 0.2678 (  8174 PWs)   bands (ev):

   -65.3316 -39.7537 -39.5551 -39.3671 -20.7451 -20.1177 -19.8182  -9.1501
    -8.3229  -7.5811  -7.1067  -6.7434  -6.3555  -5.0955  -4.3396  -4.1480
    -1.2722  -0.6853  -0.5629   1.7252

     occupation numbers 
     1.0000   1.0000   1.0000   1.0000   1.0000   1.0000   1.0000   1.0000
     1.0000   1.0000   1.0000   1.0000   1.0000   1.0000   1.0000   1.0000
     0.0000   0.0000   0.0000   0.0000

          k = 0.2727 0.0715 0.3571 (  8195 PWs)   bands (ev):

   -65.3308 -39.7520 -39.5880 -39.3656 -20.4314 -20.1090 -19.8108  -9.5219
    -8.2995  -7.9267  -7.1273  -7.0042  -6.6227  -4.9315  -4.3280  -4.0068
    -1.1636  -0.6274  -0.2291   1.6301

     occupation numbers 
     1.0000   1.0000   1.0000   1.0000   1.0000   1.0000   1.0000   1.0000
     1.0000   1.0000   1.0000   1.0000   1.0000   1.0000   1.0000   1.0000
     0.0000   0.0000   0.0000   0.0000

          k = 0.2727 0.0715 0.4464 (  8207 PWs)   bands (ev):

   -65.3302 -39.7507 -39.6120 -39.3645 -20.1835 -20.1015 -19.8103  -9.7712
    -8.2837  -8.1267  -7.5322  -7.0591  -6.5969  -4.8512  -4.3360  -3.9484
    -0.9868  -0.5952   0.1314   1.4646

     occupation numbers 
     1.0000   1.0000   1.0000   1.0000   1.0000   1.0000   1.0000   1.0000
     1.0000   1.0000   1.0000   1.0000   1.0000   1.0000   1.0000   1.0000
     0.0000   0.0000   0.0000   0.0000

          k = 0.2727 0.0715-0.5356 (  8212 PWs)   bands (ev):

   -65.3299 -39.7502 -39.6208 -39.3641 -20.1070 -20.0770 -19.8139  -9.8605
    -8.2990  -8.1590  -7.7200  -7.0558  -6.5860  -4.8292  -4.3399  -3.9352
    -0.9050  -0.5781   0.2972   1.3635

     occupation numbers 
     1.0000   1.0000   1.0000   1.0000   1.0000   1.0000   1.0000   1.0000
     1.0000   1.0000   1.0000   1.0000   1.0000   1.0000   1.0000   1.0000
     0.0000   0.0000   0.0000   0.0000

          k = 0.2727-0.1430 0.0000 (  8168 PWs)   bands (ev):

   -65.3333 -39.7568 -39.4884 -39.3703 -21.3128 -20.1346 -19.8378  -8.3722
    -7.8545  -7.3907  -7.1424  -6.2716  -5.7392  -5.3903  -4.9299  -4.3143
    -1.4362  -0.7416   0.0023   1.6802

     occupation numbers 
     1.0000   1.0000   1.0000   1.0000   1.0000   1.0000   1.0000   1.0000
     1.0000   1.0000   1.0000   1.0000   1.0000   1.0000   1.0000   1.0000
     0.0000   0.0000   0.0000   0.0000

          k = 0.2727-0.1430 0.0893 (  8150 PWs)   bands (ev):

   -65.3331 -39.7564 -39.4974 -39.3699 -21.2405 -20.1323 -19.8350  -8.3789
    -8.1726  -7.1902  -7.1158  -6.5588  -5.6566  -5.3383  -4.8434  -4.3038
    -1.3934  -0.7430  -0.2727   1.7011

     occupation numbers 
     1.0000   1.0000   1.0000   1.0000   1.0000   1.0000   1.0000   1.0000
     1.0000   1.0000   1.0000   1.0000   1.0000   1.0000   1.0000   1.0000
     0.0000   0.0000   0.0000   0.0000

          k = 0.2727-0.1430 0.1785 (  8154 PWs)   bands (ev):

   -65.3325 -39.7553 -39.5219 -39.3687 -21.0374 -20.1261 -19.8276  -8.6961
    -8.3369  -7.1900  -7.0976  -6.8242  -5.7897  -5.3194  -4.5165  -4.2728
    -1.3014  -0.7724  -0.5864   1.7341

     occupation numbers 
     1.0000   1.0000   1.0000   1.0000   1.0000   1.0000   1.0000   1.0000
     1.0000   1.0000   1.0000   1.0000   1.0000   1.0000   1.0000   1.0000
     0.0000   0.0000   0.0000   0.0000

          k = 0.2727-0.1430 0.2678 (  8170 PWs)   bands (ev):

[...]

   -65.3333 -39.7568 -39.4884 -39.3703 -21.3128 -20.1346 -19.8378  -8.3722
    -7.8545  -7.3907  -7.1424  -6.2716  -5.7392  -5.3903  -4.9299  -4.3143
    -1.4362  -0.7416   0.0024   1.6783

     occupation numbers 
     1.0000   1.0000   1.0000   1.0000   1.0000   1.0000   1.0000   1.0000
     1.0000   1.0000   1.0000   1.0000   1.0000   1.0000   1.0000   1.0000
     0.0000   0.0000   0.0000   0.0000

          k =-0.2727 0.0715-0.0893 (  8170 PWs)   bands (ev):

   -65.3331 -39.7564 -39.4974 -39.3699 -21.2405 -20.1323 -19.8350  -8.3789
    -8.1726  -7.1902  -7.1158  -6.5588  -5.6566  -5.3383  -4.8434  -4.3038
    -1.3934  -0.7430  -0.2727   1.6993

     occupation numbers 
     1.0000   1.0000   1.0000   1.0000   1.0000   1.0000   1.0000   1.0000
     1.0000   1.0000   1.0000   1.0000   1.0000   1.0000   1.0000   1.0000
     0.0000   0.0000   0.0000   0.0000

          k =-0.2727 0.0715-0.1785 (  8163 PWs)   bands (ev):

   -65.3325 -39.7553 -39.5219 -39.3687 -21.0374 -20.1261 -19.8276  -8.6961
    -8.3369  -7.1900  -7.0976  -6.8242  -5.7897  -5.3194  -4.5165  -4.2728
    -1.3014  -0.7724  -0.5864   1.7328

     occupation numbers 
     1.0000   1.0000   1.0000   1.0000   1.0000   1.0000   1.0000   1.0000
     1.0000   1.0000   1.0000   1.0000   1.0000   1.0000   1.0000   1.0000
     0.0000   0.0000   0.0000   0.0000

          k =-0.2727 0.0715-0.2678 (  8174 PWs)   bands (ev):

   -65.3316 -39.7537 -39.5551 -39.3671 -20.7451 -20.1177 -19.8182  -9.1501
    -8.3229  -7.5811  -7.1067  -6.7434  -6.3555  -5.0955  -4.3396  -4.1480
    -1.2722  -0.6853  -0.5629   1.7250

     occupation numbers 
     1.0000   1.0000   1.0000   1.0000   1.0000   1.0000   1.0000   1.0000
     1.0000   1.0000   1.0000   1.0000   1.0000   1.0000   1.0000   1.0000
     0.0000   0.0000   0.0000   0.0000

          k =-0.2727 0.0715-0.3571 (  8195 PWs)   bands (ev):

   -65.3308 -39.7520 -39.5880 -39.3656 -20.4314 -20.1090 -19.8108  -9.5219
    -8.2995  -7.9267  -7.1273  -7.0042  -6.6227  -4.9315  -4.3280  -4.0068
    -1.1636  -0.6274  -0.2291   1.6300

     occupation numbers 
     1.0000   1.0000   1.0000   1.0000   1.0000   1.0000   1.0000   1.0000
     1.0000   1.0000   1.0000   1.0000   1.0000   1.0000   1.0000   1.0000
     0.0000   0.0000   0.0000   0.0000

          k =-0.2727 0.0715-0.4464 (  8207 PWs)   bands (ev):

   -65.3302 -39.7507 -39.6120 -39.3645 -20.1835 -20.1015 -19.8103  -9.7712
    -8.2837  -8.1267  -7.5322  -7.0591  -6.5969  -4.8512  -4.3360  -3.9484
    -0.9868  -0.5952   0.1314   1.4645

     occupation numbers 
     1.0000   1.0000   1.0000   1.0000   1.0000   1.0000   1.0000   1.0000
     1.0000   1.0000   1.0000   1.0000   1.0000   1.0000   1.0000   1.0000
     0.0000   0.0000   0.0000   0.0000

          k =-0.2727 0.0715 0.5356 (  8212 PWs)   bands (ev):

   -65.3299 -39.7502 -39.6208 -39.3641 -20.1070 -20.0770 -19.8139  -9.8605
    -8.2990  -8.1590  -7.7200  -7.0558  -6.5860  -4.8292  -4.3399  -3.9352
    -0.9050  -0.5781   0.2972   1.3635

     occupation numbers 
     1.0000   1.0000   1.0000   1.0000   1.0000   1.0000   1.0000   1.0000
     1.0000   1.0000   1.0000   1.0000   1.0000   1.0000   1.0000   1.0000
     0.0000   0.0000   0.0000   0.0000

          k =-0.3636 0.0715 0.0000 (  8162 PWs)   bands (ev):

   -65.3330 -39.7563 -39.4878 -39.3855 -21.2980 -20.1217 -19.6128  -8.9193
    -7.8624  -7.5682  -7.3079  -6.4485  -5.7461  -5.5189  -4.9925  -4.2064
    -0.9707  -0.4028   0.0280   1.7451

     occupation numbers 
     1.0000   1.0000   1.0000   1.0000   1.0000   1.0000   1.0000   1.0000
     1.0000   1.0000   1.0000   1.0000   1.0000   1.0000   1.0000   1.0000
     0.0000   0.0000   0.0000   0.0000

          k =-0.3636 0.0715-0.0893 (  8152 PWs)   bands (ev):

   -65.3328 -39.7559 -39.4968 -39.3850 -21.2256 -20.1196 -19.6098  -8.9245
    -8.1777  -7.5165  -7.1420  -6.7519  -5.6637  -5.3925  -4.9374  -4.1975
    -0.9324  -0.4253  -0.2276   1.7542

     occupation numbers 
     1.0000   1.0000   1.0000   1.0000   1.0000   1.0000   1.0000   1.0000
     1.0000   1.0000   1.0000   1.0000   1.0000   1.0000   1.0000   1.0000
     0.0000   0.0000   0.0000   0.0000

          k =-0.3636 0.0715-0.1785 (  8146 PWs)   bands (ev):

   -65.3322 -39.7548 -39.5213 -39.3838 -21.0224 -20.1137 -19.6017  -8.9739
    -8.6031  -7.4925  -7.3256  -6.8678  -5.8338  -5.3070  -4.5594  -4.1620
    -0.8628  -0.6670  -0.3502   1.7553

     occupation numbers 
     1.0000   1.0000   1.0000   1.0000   1.0000   1.0000   1.0000   1.0000
     1.0000   1.0000   1.0000   1.0000   1.0000   1.0000   1.0000   1.0000
     0.0000   0.0000   0.0000   0.0000

          k =-0.3636 0.0715-0.2678 (  8170 PWs)   bands (ev):

   -65.3314 -39.7532 -39.5545 -39.3822 -20.7298 -20.1056 -19.5912  -9.2334
    -8.7753  -7.8007  -7.4545  -6.7607  -6.4239  -5.0725  -4.2901  -4.0102
    -0.9958  -0.4940  -0.3370   1.7071

     occupation numbers 
     1.0000   1.0000   1.0000   1.0000   1.0000   1.0000   1.0000   1.0000
     1.0000   1.0000   1.0000   1.0000   1.0000   1.0000   1.0000   1.0000
     0.0000   0.0000   0.0000   0.0000

          k =-0.3636 0.0715-0.3571 (  8188 PWs)   bands (ev):

   -65.3305 -39.7515 -39.5874 -39.3806 -20.4164 -20.0975 -19.5822  -9.5636
    -8.7795  -8.1695  -7.4389  -7.0847  -6.6714  -4.9095  -4.2375  -3.7812
    -0.9367  -0.3703  -0.1185   1.5789

     occupation numbers 
     1.0000   1.0000   1.0000   1.0000   1.0000   1.0000   1.0000   1.0000
     1.0000   1.0000   1.0000   1.0000   1.0000   1.0000   1.0000   1.0005
     0.0000   0.0000   0.0000   0.0000

          k =-0.3636 0.0715-0.4464 (  8202 PWs)   bands (ev):

   -65.3299 -39.7502 -39.6113 -39.3795 -20.1702 -20.0911 -19.5781  -9.7950
    -8.7510  -8.4129  -7.6088  -7.3766  -6.6398  -4.8345  -4.2251  -3.6515
    -0.7368  -0.4009   0.2112   1.3934

     occupation numbers 
     1.0000   1.0000   1.0000   1.0000   1.0000   1.0000   1.0000   1.0000
     1.0000   1.0000   1.0000   1.0000   1.0000   1.0000   1.0000   1.0042
     0.0000   0.0000   0.0000   0.0000

          k =-0.3636 0.0715 0.5356 (  8200 PWs)   bands (ev):

   -65.3297 -39.7497 -39.6201 -39.3791 -20.0924 -20.0714 -19.5780  -9.8780
    -8.7280  -8.5048  -7.7765  -7.3814  -6.6288  -4.8149  -4.2220  -3.6136
    -0.5908  -0.4616   0.3683   1.2841

     occupation numbers 
     1.0000   1.0000   1.0000   1.0000   1.0000   1.0000   1.0000   1.0000
     1.0000   1.0000   1.0000   1.0000   1.0000   1.0000   1.0000   1.0071
     0.0000   0.0000   0.0000   0.0000

          k =-0.4545 0.0715 0.0000 (  8140 PWs)   bands (ev):

   -65.3329 -39.7560 -39.4875 -39.3944 -21.2902 -20.1170 -19.4661  -9.2630
    -7.8682  -7.7150  -7.3283  -6.5469  -5.7619  -5.5696  -5.0174  -4.1624
    -0.7173  -0.1456   0.0553   1.7406

     occupation numbers 
     1.0000   1.0000   1.0000   1.0000   1.0000   1.0000   1.0000   1.0000
     1.0000   1.0000   1.0000   1.0000   1.0000   1.0000   1.0000   1.0000
     0.0000   0.0000   0.0000   0.0000

          k =-0.4545 0.0715-0.0893 (  8143 PWs)   bands (ev):

   -65.3327 -39.7556 -39.4965 -39.3940 -21.2179 -20.1149 -19.4629  -9.2671
    -8.1776  -7.6912  -7.1498  -6.8495  -5.6712  -5.4137  -4.9836  -4.1530
    -0.6835  -0.2614  -0.1045   1.7421

     occupation numbers 
     1.0000   1.0000   1.0000   1.0000   1.0000   1.0000   1.0000   1.0000
     1.0000   1.0000   1.0000   1.0000   1.0000   1.0000   1.0000   1.0000
     0.0000   0.0000   0.0000   0.0000

          k =-0.4545 0.0715-0.1785 (  8140 PWs)   bands (ev):

   -65.3320 -39.7545 -39.5210 -39.3927 -21.0146 -20.1091 -19.4543  -9.2911
    -8.6262  -7.6766  -7.4272  -6.8743  -5.8490  -5.2999  -4.5923  -4.1127
    -0.6840  -0.5608  -0.1169   1.7250

     occupation numbers 
     1.0000   1.0000   1.0000   1.0000   1.0000   1.0000   1.0000   1.0000
     1.0000   1.0000   1.0000   1.0000   1.0000   1.0000   1.0000   1.0000
     0.0000   0.0000   0.0000   0.0000

          k =-0.4545 0.0715-0.2678 (  8164 PWs)   bands (ev):

   -65.3312 -39.7529 -39.5541 -39.3911 -20.7223 -20.1012 -19.4428  -9.3979
    -8.9507  -7.9289  -7.6224  -6.7619  -6.4460  -5.0613  -4.2815  -3.9463
    -0.8860  -0.3419  -0.1187   1.6560

     occupation numbers 
     1.0000   1.0000   1.0000   1.0000   1.0000   1.0000   1.0000   1.0000
     1.0000   1.0000   1.0000   1.0000   1.0000   1.0000   1.0000   1.0000
     0.0000   0.0000   0.0000   0.0000

          k =-0.4545 0.0715-0.3571 (  8177 PWs)   bands (ev):

   -65.3303 -39.7512 -39.5870 -39.3895 -20.4096 -20.0931 -19.4324  -9.6284
    -9.0561  -8.2997  -7.6040  -7.1052  -6.6817  -4.8992  -4.2043  -3.6759
    -0.8199  -0.1509  -0.0233   1.5115

     occupation numbers 
     1.0000   1.0000   1.0000   1.0000   1.0000   1.0000   1.0000   1.0000
     1.0000   1.0000   1.0000   1.0000   1.0000   1.0000   1.0000   1.0029
     0.0000   0.0000   0.0000   0.0000

          k =-0.4545 0.0715-0.4464 (  8193 PWs)   bands (ev):

   -65.3297 -39.7499 -39.6109 -39.3884 -20.1648 -20.0870 -19.4263  -9.8275
    -9.0688  -8.5428  -7.6506  -7.5175  -6.6489  -4.8266  -4.1811  -3.5062
    -0.5976  -0.2155   0.2810   1.3151

     occupation numbers 
     1.0000   1.0000   1.0000   1.0000   1.0000   1.0000   1.0000   1.0000
     1.0000   1.0000   1.0000   1.0000   1.0000   1.0000   1.0000   1.0244
     0.0000   0.0000   0.0000   0.0000

          k =-0.4545 0.0715 0.5356 (  8184 PWs)   bands (ev):

   -65.3295 -39.7494 -39.6197 -39.3880 -20.0874 -20.0681 -19.4248  -9.9017
    -9.0665  -8.6288  -7.7890  -7.5471  -6.6379  -4.8082  -4.1745  -3.4534
    -0.3892  -0.3428   0.4326   1.1985

     occupation numbers 
     1.0000   1.0000   1.0000   1.0000   1.0000   1.0000   1.0000   1.0000
     1.0000   1.0000   1.0000   1.0000   1.0000   1.0000   1.0000   1.0392
     0.0000   0.0000   0.0000   0.0000

     the Fermi energy is    -2.9028 ev

     WARNING: integrated charge=    32.00639366, expected=    32.00000000

!    total energy              =    -260.70505210 Ry
     estimated scf accuracy    <          9.8E-11 Ry
     smearing contrib. (-TS)   =       0.00010945 Ry
     internal energy E=F+TS    =    -260.70516156 Ry

     The total energy is F=E-TS. E is the sum of the following terms:
     one-electron contribution =    -784.55526762 Ry
     hartree contribution      =     393.80331249 Ry
     xc contribution           =     -36.98311083 Ry
     ewald contribution        =     194.37798089 Ry
     one-center paw contrib.   =     -27.34807649 Ry
      -> PAW hartree energy AE =      77.88072811 Ry
      -> PAW hartree energy PS =     -77.51880870 Ry
      -> PAW xc energy AE      =     -48.52238342 Ry
      -> PAW xc energy PS      =      20.81238752 Ry
      -> total E_H with PAW    =     394.16523190 Ry
      -> total E_XC with PAW   =     -64.69310673 Ry

     convergence has been achieved in  14 iterations

     negative rho (up, down):  8.320E-05 0.000E+00

     Forces acting on atoms (cartesian axes, Ry/au):

     atom    1 type  1   force =     0.01362535   -0.11759688    0.00000000
     atom    2 type  2   force =     0.02628630    0.02831378    0.00000000
     atom    3 type  2   force =    -0.08734914    0.01642173    0.00000000
     atom    4 type  2   force =     0.04743749    0.07286138    0.00000000
     The non-local contrib.  to forces
     atom    1 type  1   force =     0.01428334   -0.10146823    0.00000000
     atom    2 type  2   force =     0.23909130   -0.22562085    0.00000000
     atom    3 type  2   force =    -0.14754325   -0.03511540    0.00000000
     atom    4 type  2   force =     0.32257239    1.47848551    0.00000000
     The ionic contribution  to forces
     atom    1 type  1   force =     2.80380211   12.16794367    0.00000000
     atom    2 type  2   force =    -1.26951084   13.26822908   -0.00000000
     atom    3 type  2   force =     0.03051096    8.42785899   -0.00000000
     atom    4 type  2   force =    -1.56480222  -33.86403174   -0.00000000
     The local contribution  to forces
     atom    1 type  1   force =    -2.80445228  -12.18411273    0.00000000
     atom    2 type  2   force =     1.05857938  -13.01534539    0.00000000
     atom    3 type  2   force =     0.02874316   -8.37611019    0.00000000
     atom    4 type  2   force =     1.29238865   32.46852918    0.00000000
     The core correction contribution to forces
     atom    1 type  1   force =     0.00000000    0.00000000    0.00000000
     atom    2 type  2   force =    -0.00187410    0.00104087    0.00000000
     atom    3 type  2   force =     0.00093888   -0.00022297    0.00000000
     atom    4 type  2   force =    -0.00271758   -0.01013446    0.00000000
     The Hubbard contrib.    to forces
     atom    1 type  1   force =     0.00000000    0.00000000    0.00000000
     atom    2 type  2   force =     0.00000000    0.00000000    0.00000000
     atom    3 type  2   force =     0.00000000    0.00000000    0.00000000
     atom    4 type  2   force =     0.00000000    0.00000000    0.00000000
     The SCF correction term to forces
     atom    1 type  1   force =    -0.00000686    0.00004053    0.00000000
     atom    2 type  2   force =     0.00000152    0.00001019    0.00000000
     atom    3 type  2   force =     0.00000209    0.00001142    0.00000000
     atom    4 type  2   force =    -0.00000279    0.00001302    0.00000000

     Total force =     0.175971     Total SCF correction =     0.000046


     Computing stress (Cartesian axis) and pressure


     negative rho (up, down):  8.320E-05 0.000E+00
          total   stress  (Ry/bohr**3)                   (kbar)     P=      -32.67
  -0.00043726  -0.00012326   0.00000000          -64.32      -18.13        0.00
  -0.00012326  -0.00015062   0.00000000          -18.13      -22.16        0.00
   0.00000000   0.00000000  -0.00007832            0.00        0.00      -11.52

     kinetic stress (kbar)   6501.70    -16.57      0.00
                              -16.57   6584.86      0.00
                                0.00      0.00   6499.19

     local   stress (kbar) -75703.26   -619.23      0.00
                             -619.23  67660.97     -0.00
                                0.00     -0.00 -77005.60

     nonloc. stress (kbar)   1984.57     -4.95      0.00
                               -4.95   1956.24      0.00
                                0.00      0.00   1984.23

     hartree stress (kbar)  37083.48    183.89     -0.00
                              183.89 -32336.32      0.00
                               -0.00      0.00  37533.43

     exc-cor stress (kbar)  -1099.28      0.64     -0.00
                                0.64  -1102.20      0.00
                               -0.00      0.00  -1099.09

     corecor stress (kbar)   -136.67     -0.00      0.00
                               -0.00   -136.94      0.00
                                0.00      0.00   -136.67

     ewald   stress (kbar)  31305.13    438.09      0.00
                              438.09 -42648.76     -0.00
                                0.00     -0.00  32212.97

     hubbard stress (kbar)      0.00      0.00      0.00
                                0.00      0.00      0.00
                                0.00      0.00      0.00

     DFT-D   stress (kbar)      0.00      0.00      0.00
                                0.00      0.00      0.00
                                0.00      0.00      0.00

     XDM     stress (kbar)      0.00      0.00      0.00
                                0.00      0.00      0.00
                                0.00      0.00      0.00

     dft-nl  stress (kbar)      0.00      0.00      0.00
                                0.00      0.00      0.00
                                0.00      0.00      0.00

     TS-vdW  stress (kbar)      0.00      0.00      0.00
                                0.00      0.00      0.00
                                0.00      0.00      0.00

     MDB     stress (kbar)      0.00      0.00      0.00
                                0.00      0.00      0.00
                                0.00      0.00      0.00

     3D-RISM stress (kbar)      0.00      0.00      0.00
                                0.00      0.00      0.00
                                0.00      0.00      0.00


     Writing all to output data dir ./out/aiida.save/ :
     XML data file, charge density, pseudopotentials, collected wavefunctions

     init_run     :     50.21s CPU     18.82s WALL (       1 calls)
     electrons    :   1573.88s CPU    562.41s WALL (       1 calls)
     forces       :      2.87s CPU      1.55s WALL (       1 calls)
     stress       :     38.11s CPU     30.02s WALL (       1 calls)

     Called by init_run:
     wfcinit      :     48.73s CPU     17.32s WALL (       1 calls)
     wfcinit:atom :      1.39s CPU      0.56s WALL (     161 calls)
     wfcinit:wfcr :     39.79s CPU     13.99s WALL (     161 calls)
     potinit      :      0.55s CPU      0.57s WALL (       1 calls)
     hinit0       :      0.66s CPU      0.66s WALL (       1 calls)

     Called by electrons:
     c_bands      :   1475.66s CPU    496.54s WALL (      14 calls)
     sum_band     :     94.10s CPU     61.37s WALL (      14 calls)
     v_of_rho     :      1.63s CPU      1.80s WALL (      15 calls)
     v_h          :      0.07s CPU      0.09s WALL (      15 calls)
     v_xc         :      1.79s CPU      1.94s WALL (      17 calls)
     newd         :      1.62s CPU      1.84s WALL (      15 calls)
     PAW_pot      :      0.82s CPU      0.82s WALL (      15 calls)
     mix_rho      :      0.20s CPU      0.20s WALL (      14 calls)

     Called by c_bands:
     init_us_2    :     41.16s CPU     17.44s WALL (    4991 calls)
     cegterg      :   1356.61s CPU    453.74s WALL (    2254 calls)

     Called by sum_band:
     sum_band:wei :      0.22s CPU      0.08s WALL (      14 calls)
     sum_band:loo :     86.79s CPU     58.51s WALL (      14 calls)
     sum_band:buf :      1.40s CPU      0.52s WALL (    2254 calls)
     sum_band:ini :      8.52s CPU      5.66s WALL (    2254 calls)
     sum_band:cal :      4.44s CPU      1.55s WALL (    2254 calls)
     sum_band:bec :      0.04s CPU      0.01s WALL (    2254 calls)
     addusdens    :      6.55s CPU      2.46s WALL (      14 calls)
                                        0.00s GPU  (      14 calls)
     addusd:skk   :      0.04s CPU      0.03s WALL (      14 calls)
                                        0.00s GPU  (      14 calls)

     Called by *egterg:
     cdiaghg      :     16.18s CPU      5.05s WALL (    8242 calls)
     cegterg:over :     45.61s CPU      5.77s WALL (    5988 calls)
     cegterg:upda :     24.76s CPU      3.76s WALL (    5988 calls)
     cegterg:last :     45.24s CPU      4.82s WALL (    4113 calls)
     h_psi        :   1189.82s CPU    434.77s WALL (    8403 calls)
     s_psi        :     20.95s CPU      2.73s WALL (    8403 calls)
     g_psi        :     10.15s CPU      2.90s WALL (    5988 calls)

     Called by h_psi:
     h_psi:calbec :     33.82s CPU      7.05s WALL (    8403 calls)
     vloc_psi     :   1118.33s CPU    421.88s WALL (    8403 calls)
     add_vuspsi   :     31.51s CPU      3.79s WALL (    8403 calls)

     General routines
     calbec       :     39.33s CPU      9.04s WALL (   11462 calls)
     fft          :      1.14s CPU      1.15s WALL (     218 calls)
     ffts         :      0.38s CPU      0.38s WALL (      29 calls)
     fftw         :    951.34s CPU    381.01s WALL (  259836 calls)
     interpolate  :      0.42s CPU      0.42s WALL (      15 calls)

     Parallel routines

     PAW routines
     PAW_pot      :      0.82s CPU      0.82s WALL (      15 calls)
     PAW_symme    :      0.00s CPU      0.00s WALL (      29 calls)

     PWSCF        :  27m45.54s CPU  10m13.28s WALL


   This run was terminated on:  10:30:37  14Dec2024            

=------------------------------------------------------------------------------=
   JOB DONE.
=------------------------------------------------------------------------------=
