
     Program PWSCF v.7.3.1 starts on 12Dec2024 at 21:46:14 

     This program is part of the open-source Quantum ESPRESSO suite
     for quantum simulation of materials; please cite
         "P. Giannozzi et al., J. Phys.:Condens. Matter 21 395502 (2009);
         "P. Giannozzi et al., J. Phys.:Condens. Matter 29 465901 (2017);
         "P. Giannozzi et al., J. Chem. Phys. 152 154105 (2020);
          URL http://www.quantum-espresso.org", 
     in publications or presentations arising from this work. More details at
     http://www.quantum-espresso.org/quote

     Parallel version (MPI), running on     1 processors

     MPI processes distributed on     1 nodes
     22065 MiB available memory on the printing compute node when the environment starts

     Waiting for input...
     Reading input from standard input

     Current dimensions of program PWSCF are:
     Max number of different atomic species (ntypx) = 10
     Max number of k-points (npk) =  40000
     Max angular momentum in pseudopotentials (lmaxx) =  4

     Atomic positions and unit cell read from directory:
     ./out/aiida.save/

     Message from routine setup:
     using ibrav=0 with symmetry is DISCOURAGED, use correct ibrav instead

     Subspace diagonalization in iterative solution of the eigenvalue problem:
     a serial algorithm will be used


     G-vector sticks info
     --------------------
     sticks:   dense  smooth     PW     G-vecs:    dense   smooth      PW
     Sum         703     349    109                69899    24741    4367

     Using Slab Decomposition



     bravais-lattice index     =            0
     lattice parameter (alat)  =       6.0288  a.u.
     unit-cell volume          =     885.0514 (a.u.)^3
     number of atoms/cell      =            3
     number of atomic types    =            2
     number of electrons       =        26.00
     number of Kohn-Sham states=           17
     kinetic-energy cutoff     =      35.0000  Ry
     charge density cutoff     =     280.0000  Ry
     Exchange-correlation= SLA  PW   PSX  PSC
                           (   1   4  10   8   0   0   0)

     celldm(1)=   6.028823  celldm(2)=   0.000000  celldm(3)=   0.000000
     celldm(4)=   0.000000  celldm(5)=   0.000000  celldm(6)=   0.000000

     crystal axes: (cart. coord. in units of alat)
               a(1) = (   1.000000   0.000000   0.000000 )  
               a(2) = (  -0.500000   0.866025   0.000000 )  
               a(3) = (   0.000000   0.000000   4.663803 )  

     reciprocal axes: (cart. coord. in units 2 pi/alat)
               b(1) = (  1.000000  0.577350 -0.000000 )  
               b(2) = (  0.000000  1.154701  0.000000 )  
               b(3) = (  0.000000 -0.000000  0.214417 )  


     PseudoPot. # 1 for Mo read from file:
     ./Mo_ONCV_PBEsol-1.0.upf
     MD5 check sum: 5193ba6a20874d27c2ef80314d1b3445
     Pseudo is Norm-conserving, Zval = 14.0
     Generated using ONCVPSP code by D. R. Hamann
     Using radial grid of 1508 points,  6 beta functions with: 
                l(1) =   0
                l(2) =   0
                l(3) =   1
                l(4) =   1
                l(5) =   2
                l(6) =   2

     PseudoPot. # 2 for S  read from file:
     ./s_pbesol_v1.4.uspp.F.UPF
     MD5 check sum: 0ccfa86ec6eb59065d10aaae963ef2a7
     Pseudo is Ultrasoft + core correction, Zval =  6.0
     Generated by new atomic code, or converted to UPF format
     Using radial grid of  907 points,  6 beta functions with: 
                l(1) =   0
                l(2) =   0
                l(3) =   1
                l(4) =   1
                l(5) =   2
                l(6) =   2
     Q(r) pseudized with  8 coefficients,  rinner =    1.300   1.300   1.300
                                                       1.300   1.300

     atomic species   valence    mass     pseudopotential
     Mo               14.00    95.96000     Mo( 1.00)
     S                 6.00    32.06500     S ( 1.00)

     12 Sym. Ops. (no inversion) found ( 6 have fractional translation)


                                    s                        frac. trans.

      isym =  1     identity                                     

 cryst.   s( 1) = (     1          0          0      )
                  (     0          1          0      )
                  (     0          0          1      )

 cart.    s( 1) = (  1.0000000  0.0000000  0.0000000 )
                  (  0.0000000  1.0000000  0.0000000 )
                  (  0.0000000  0.0000000  1.0000000 )


      isym =  2     180 deg rotation - cart. axis [0,1,0]        

 cryst.   s( 2) = (    -1          0          0      )    f =( -0.0000010 )
                  (     1          1          0      )       (  0.0000000 )
                  (     0          0         -1      )       (  0.5000000 )

 cart.    s( 2) = ( -1.0000000  0.0000000  0.0000000 )    f =( -0.0000010 )
                  (  0.0000000  1.0000000  0.0000000 )       (  0.0000000 )
                  (  0.0000000  0.0000000 -1.0000000 )       (  2.3319013 )


      isym =  3     120 deg rotation - cryst. axis [0,0,1]       

 cryst.   s( 3) = (     0          1          0      )
                  (    -1         -1          0      )
                  (     0          0          1      )

 cart.    s( 3) = ( -0.5000000 -0.8660254  0.0000000 )
                  (  0.8660254 -0.5000000  0.0000000 )
                  (  0.0000000  0.0000000  1.0000000 )


      isym =  4     120 deg rotation - cryst. axis [0,0,-1]      

 cryst.   s( 4) = (    -1         -1          0      )
                  (     1          0          0      )
                  (     0          0          1      )

 cart.    s( 4) = ( -0.5000000  0.8660254  0.0000000 )
                  ( -0.8660254 -0.5000000  0.0000000 )
                  (  0.0000000  0.0000000  1.0000000 )


      isym =  5     180 deg rotation - cryst. axis [1,-1,0]      

 cryst.   s( 5) = (     0         -1          0      )    f =(  0.0000000 )
                  (    -1          0          0      )       (  0.0000000 )
                  (     0          0         -1      )       (  0.5000000 )

 cart.    s( 5) = (  0.5000000 -0.8660254  0.0000000 )    f =(  0.0000000 )
                  ( -0.8660254 -0.5000000  0.0000000 )       (  0.0000000 )
                  (  0.0000000  0.0000000 -1.0000000 )       (  2.3319013 )


      isym =  6     180 deg rotation - cryst. axis [2,1,0]       

 cryst.   s( 6) = (     1          1          0      )    f =(  0.0000000 )
                  (     0         -1          0      )       (  0.0000010 )
                  (     0          0         -1      )       (  0.5000000 )

 cart.    s( 6) = (  0.5000000  0.8660254  0.0000000 )    f =( -0.0000005 )
                  (  0.8660254 -0.5000000  0.0000000 )       (  0.0000009 )
                  (  0.0000000  0.0000000 -1.0000000 )       (  2.3319013 )


      isym =  7     inv. 180 deg rotation - cart. axis [0,0,1]   

 cryst.   s( 7) = (     1          0          0      )    f =(  0.0000000 )
                  (     0          1          0      )       (  0.0000000 )
                  (     0          0         -1      )       (  0.5000000 )

 cart.    s( 7) = (  1.0000000  0.0000000  0.0000000 )    f =(  0.0000000 )
                  (  0.0000000  1.0000000  0.0000000 )       (  0.0000000 )
                  (  0.0000000  0.0000000 -1.0000000 )       (  2.3319013 )


      isym =  8     inv. 180 deg rotation - cart. axis [1,0,0]   

 cryst.   s( 8) = (    -1          0          0      )
                  (     1          1          0      )
                  (     0          0          1      )

 cart.    s( 8) = ( -1.0000000  0.0000000  0.0000000 )
                  (  0.0000000  1.0000000  0.0000000 )
                  (  0.0000000  0.0000000  1.0000000 )


      isym =  9     inv.  60 deg rotation - cryst. axis [0,0,1]  

 cryst.   s( 9) = (    -1         -1          0      )    f =( -0.0000010 )
                  (     1          0          0      )       (  0.0000000 )
                  (     0          0         -1      )       (  0.5000000 )

 cart.    s( 9) = ( -0.5000000  0.8660254  0.0000000 )    f =( -0.0000010 )
                  ( -0.8660254 -0.5000000  0.0000000 )       (  0.0000000 )
                  (  0.0000000  0.0000000 -1.0000000 )       (  2.3319013 )


      isym = 10     inv.  60 deg rotation - cryst. axis [0,0,-1] 

 cryst.   s(10) = (     0          1          0      )    f =(  0.0000000 )
                  (    -1         -1          0      )       (  0.0000010 )
                  (     0          0         -1      )       (  0.5000000 )

 cart.    s(10) = ( -0.5000000 -0.8660254  0.0000000 )    f =( -0.0000005 )
                  (  0.8660254 -0.5000000  0.0000000 )       (  0.0000009 )
                  (  0.0000000  0.0000000 -1.0000000 )       (  2.3319013 )


      isym = 11     inv. 180 deg rotation - cryst. axis [0,1,0]  

 cryst.   s(11) = (     1          1          0      )
                  (     0         -1          0      )
                  (     0          0          1      )

 cart.    s(11) = (  0.5000000  0.8660254  0.0000000 )
                  (  0.8660254 -0.5000000  0.0000000 )
                  (  0.0000000  0.0000000  1.0000000 )


      isym = 12     inv. 180 deg rotation - cryst. axis [1,1,0]  

 cryst.   s(12) = (     0         -1          0      )
                  (    -1          0          0      )
                  (     0          0          1      )

 cart.    s(12) = (  0.5000000 -0.8660254  0.0000000 )
                  ( -0.8660254 -0.5000000  0.0000000 )
                  (  0.0000000  0.0000000  1.0000000 )


   Cartesian axes

     site n.     atom                  positions (alat units)
         1        Mo     tau(   1) = (   0.5000005   0.2886748   3.4978519  )
         2        S      tau(   2) = (  -0.0000005   0.5773506   3.0146135  )
         3        S      tau(   3) = (  -0.0000005   0.5773506   3.9810904  )

   Crystallographic axes

     site n.     atom                  positions (cryst. coord.)
         1        Mo     tau(   1) = (  0.6666670  0.3333330  0.7500000  )
         2        S      tau(   2) = (  0.3333330  0.6666670  0.6463853  )
         3        S      tau(   3) = (  0.3333330  0.6666670  0.8536147  )

     number of k points=   461  Marzari-Vanderbilt smearing, width (Ry)=  0.0200
                       cart. coord. in units 2pi/alat
        k(    1) = (   0.0000000   0.0000000   0.0000000), wk =   0.0043384
        k(    2) = (   0.0250000   0.0144338   0.0000000), wk =   0.0043384
        k(    3) = (   0.0500000   0.0288675   0.0000000), wk =   0.0043384
        k(    4) = (   0.0750000   0.0433013   0.0000000), wk =   0.0043384
        k(    5) = (   0.1000000   0.0577350   0.0000000), wk =   0.0043384
        k(    6) = (   0.1250000   0.0721688   0.0000000), wk =   0.0043384
        k(    7) = (   0.1500000   0.0866025   0.0000000), wk =   0.0043384
        k(    8) = (   0.1750000   0.1010363   0.0000000), wk =   0.0043384
        k(    9) = (   0.2000000   0.1154701   0.0000000), wk =   0.0043384
        k(   10) = (   0.2250000   0.1299038   0.0000000), wk =   0.0043384
        k(   11) = (   0.2500000   0.1443376   0.0000000), wk =   0.0043384
        k(   12) = (   0.2750000   0.1587713   0.0000000), wk =   0.0043384
        k(   13) = (   0.3000000   0.1732051   0.0000000), wk =   0.0043384
        k(   14) = (   0.3250000   0.1876388   0.0000000), wk =   0.0043384
        k(   15) = (   0.3500000   0.2020726   0.0000000), wk =   0.0043384
        k(   16) = (   0.3750000   0.2165064   0.0000000), wk =   0.0043384
        k(   17) = (   0.4000000   0.2309401   0.0000000), wk =   0.0043384
        k(   18) = (   0.4250000   0.2453739   0.0000000), wk =   0.0043384
        k(   19) = (   0.4500000   0.2598076   0.0000000), wk =   0.0043384
        k(   20) = (   0.4750000   0.2742414   0.0000000), wk =   0.0043384
        k(   21) = (   0.5000000   0.2886751   0.0000000), wk =   0.0043384
        k(   22) = (   0.4916667   0.3031089   0.0000000), wk =   0.0043384
        k(   23) = (   0.4833333   0.3175426   0.0000000), wk =   0.0043384
        k(   24) = (   0.4750000   0.3319764   0.0000000), wk =   0.0043384
        k(   25) = (   0.4666667   0.3464102   0.0000000), wk =   0.0043384
        k(   26) = (   0.4583333   0.3608439   0.0000000), wk =   0.0043384
        k(   27) = (   0.4500000   0.3752777   0.0000000), wk =   0.0043384
        k(   28) = (   0.4416667   0.3897114   0.0000000), wk =   0.0043384
        k(   29) = (   0.4333333   0.4041452   0.0000000), wk =   0.0043384
        k(   30) = (   0.4250000   0.4185789   0.0000000), wk =   0.0043384
        k(   31) = (   0.4166667   0.4330127   0.0000000), wk =   0.0043384
        k(   32) = (   0.4083333   0.4474465   0.0000000), wk =   0.0043384
        k(   33) = (   0.4000000   0.4618802   0.0000000), wk =   0.0043384
        k(   34) = (   0.3916667   0.4763140   0.0000000), wk =   0.0043384
        k(   35) = (   0.3833333   0.4907477   0.0000000), wk =   0.0043384
        k(   36) = (   0.3750000   0.5051815   0.0000000), wk =   0.0043384
        k(   37) = (   0.3666667   0.5196152   0.0000000), wk =   0.0043384
        k(   38) = (   0.3583333   0.5340490   0.0000000), wk =   0.0043384
        k(   39) = (   0.3500000   0.5484828   0.0000000), wk =   0.0043384
        k(   40) = (   0.3416667   0.5629165   0.0000000), wk =   0.0043384
        k(   41) = (   0.3333333   0.5773503   0.0000000), wk =   0.0043384
        k(   42) = (   0.3166667   0.5484828   0.0000000), wk =   0.0043384
        k(   43) = (   0.3000000   0.5196152   0.0000000), wk =   0.0043384
        k(   44) = (   0.2833333   0.4907477   0.0000000), wk =   0.0043384
        k(   45) = (   0.2666667   0.4618802   0.0000000), wk =   0.0043384
        k(   46) = (   0.2500000   0.4330127   0.0000000), wk =   0.0043384
        k(   47) = (   0.2333333   0.4041452   0.0000000), wk =   0.0043384
        k(   48) = (   0.2166667   0.3752777   0.0000000), wk =   0.0043384
        k(   49) = (   0.2000000   0.3464102   0.0000000), wk =   0.0043384
        k(   50) = (   0.1833333   0.3175426   0.0000000), wk =   0.0043384
        k(   51) = (   0.1666667   0.2886751   0.0000000), wk =   0.0043384
        k(   52) = (   0.1500000   0.2598076   0.0000000), wk =   0.0043384
        k(   53) = (   0.1333333   0.2309401   0.0000000), wk =   0.0043384
        k(   54) = (   0.1166667   0.2020726   0.0000000), wk =   0.0043384
        k(   55) = (   0.1000000   0.1732051   0.0000000), wk =   0.0043384
        k(   56) = (   0.0833333   0.1443376   0.0000000), wk =   0.0043384
        k(   57) = (   0.0666667   0.1154701   0.0000000), wk =   0.0043384
        k(   58) = (   0.0500000   0.0866025   0.0000000), wk =   0.0043384
        k(   59) = (   0.0333333   0.0577350   0.0000000), wk =   0.0043384
        k(   60) = (   0.0166667   0.0288675   0.0000000), wk =   0.0043384
        k(   61) = (   0.0000000   0.0000000   0.0000000), wk =   0.0043384
        k(   62) = (   0.0000000   0.0000000   0.0053604), wk =   0.0043384
        k(   63) = (   0.0000000   0.0000000   0.0107209), wk =   0.0043384
        k(   64) = (   0.0000000   0.0000000   0.0160813), wk =   0.0043384
        k(   65) = (   0.0000000   0.0000000   0.0214417), wk =   0.0043384
        k(   66) = (   0.0000000   0.0000000   0.0268022), wk =   0.0043384
        k(   67) = (   0.0000000   0.0000000   0.0321626), wk =   0.0043384
        k(   68) = (   0.0000000   0.0000000   0.0375230), wk =   0.0043384
        k(   69) = (   0.0000000   0.0000000   0.0428835), wk =   0.0043384
        k(   70) = (   0.0000000   0.0000000   0.0482439), wk =   0.0043384
        k(   71) = (   0.0000000   0.0000000   0.0536043), wk =   0.0043384
        k(   72) = (   0.0000000   0.0000000   0.0589648), wk =   0.0043384
        k(   73) = (   0.0000000   0.0000000   0.0643252), wk =   0.0043384
        k(   74) = (   0.0000000   0.0000000   0.0696856), wk =   0.0043384
        k(   75) = (   0.0000000   0.0000000   0.0750461), wk =   0.0043384
        k(   76) = (   0.0000000   0.0000000   0.0804065), wk =   0.0043384
        k(   77) = (   0.0000000   0.0000000   0.0857669), wk =   0.0043384
        k(   78) = (   0.0000000   0.0000000   0.0911274), wk =   0.0043384
        k(   79) = (   0.0000000   0.0000000   0.0964878), wk =   0.0043384
        k(   80) = (   0.0000000   0.0000000   0.1018482), wk =   0.0043384
        k(   81) = (   0.0000000   0.0000000   0.1072087), wk =   0.0043384
        k(   82) = (   0.0250000   0.0144338   0.1072087), wk =   0.0043384
        k(   83) = (   0.0500000   0.0288675   0.1072087), wk =   0.0043384
        k(   84) = (   0.0750000   0.0433013   0.1072087), wk =   0.0043384
        k(   85) = (   0.1000000   0.0577350   0.1072087), wk =   0.0043384
        k(   86) = (   0.1250000   0.0721688   0.1072087), wk =   0.0043384
        k(   87) = (   0.1500000   0.0866025   0.1072087), wk =   0.0043384
        k(   88) = (   0.1750000   0.1010363   0.1072087), wk =   0.0043384
        k(   89) = (   0.2000000   0.1154701   0.1072087), wk =   0.0043384
        k(   90) = (   0.2250000   0.1299038   0.1072087), wk =   0.0043384
        k(   91) = (   0.2500000   0.1443376   0.1072087), wk =   0.0043384
        k(   92) = (   0.2750000   0.1587713   0.1072087), wk =   0.0043384
        k(   93) = (   0.3000000   0.1732051   0.1072087), wk =   0.0043384
        k(   94) = (   0.3250000   0.1876388   0.1072087), wk =   0.0043384
        k(   95) = (   0.3500000   0.2020726   0.1072087), wk =   0.0043384
        k(   96) = (   0.3750000   0.2165064   0.1072087), wk =   0.0043384
        k(   97) = (   0.4000000   0.2309401   0.1072087), wk =   0.0043384
        k(   98) = (   0.4250000   0.2453739   0.1072087), wk =   0.0043384
        k(   99) = (   0.4500000   0.2598076   0.1072087), wk =   0.0043384
        k(  100) = (   0.4750000   0.2742414   0.1072087), wk =   0.0043384
        k(  101) = (   0.5000000   0.2886751   0.1072087), wk =   0.0043384
        k(  102) = (   0.4916667   0.3031089   0.1072087), wk =   0.0043384
        k(  103) = (   0.4833333   0.3175426   0.1072087), wk =   0.0043384
        k(  104) = (   0.4750000   0.3319764   0.1072087), wk =   0.0043384
        k(  105) = (   0.4666667   0.3464102   0.1072087), wk =   0.0043384
        k(  106) = (   0.4583333   0.3608439   0.1072087), wk =   0.0043384
        k(  107) = (   0.4500000   0.3752777   0.1072087), wk =   0.0043384
        k(  108) = (   0.4416667   0.3897114   0.1072087), wk =   0.0043384
        k(  109) = (   0.4333333   0.4041452   0.1072087), wk =   0.0043384
        k(  110) = (   0.4250000   0.4185789   0.1072087), wk =   0.0043384
        k(  111) = (   0.4166667   0.4330127   0.1072087), wk =   0.0043384
        k(  112) = (   0.4083333   0.4474465   0.1072087), wk =   0.0043384
        k(  113) = (   0.4000000   0.4618802   0.1072087), wk =   0.0043384
        k(  114) = (   0.3916667   0.4763140   0.1072087), wk =   0.0043384
        k(  115) = (   0.3833333   0.4907477   0.1072087), wk =   0.0043384
        k(  116) = (   0.3750000   0.5051815   0.1072087), wk =   0.0043384
        k(  117) = (   0.3666667   0.5196152   0.1072087), wk =   0.0043384
        k(  118) = (   0.3583333   0.5340490   0.1072087), wk =   0.0043384
        k(  119) = (   0.3500000   0.5484828   0.1072087), wk =   0.0043384
        k(  120) = (   0.3416667   0.5629165   0.1072087), wk =   0.0043384
        k(  121) = (   0.3333333   0.5773503   0.1072087), wk =   0.0043384
        k(  122) = (   0.3166667   0.5484828   0.1072087), wk =   0.0043384
        k(  123) = (   0.3000000   0.5196152   0.1072087), wk =   0.0043384
        k(  124) = (   0.2833333   0.4907477   0.1072087), wk =   0.0043384
        k(  125) = (   0.2666667   0.4618802   0.1072087), wk =   0.0043384
        k(  126) = (   0.2500000   0.4330127   0.1072087), wk =   0.0043384
        k(  127) = (   0.2333333   0.4041452   0.1072087), wk =   0.0043384
        k(  128) = (   0.2166667   0.3752777   0.1072087), wk =   0.0043384
        k(  129) = (   0.2000000   0.3464102   0.1072087), wk =   0.0043384
        k(  130) = (   0.1833333   0.3175426   0.1072087), wk =   0.0043384
        k(  131) = (   0.1666667   0.2886751   0.1072087), wk =   0.0043384
        k(  132) = (   0.1500000   0.2598076   0.1072087), wk =   0.0043384
        k(  133) = (   0.1333333   0.2309401   0.1072087), wk =   0.0043384
        k(  134) = (   0.1166667   0.2020726   0.1072087), wk =   0.0043384
        k(  135) = (   0.1000000   0.1732051   0.1072087), wk =   0.0043384
        k(  136) = (   0.0833333   0.1443376   0.1072087), wk =   0.0043384
        k(  137) = (   0.0666667   0.1154701   0.1072087), wk =   0.0043384
        k(  138) = (   0.0500000   0.0866025   0.1072087), wk =   0.0043384
        k(  139) = (   0.0333333   0.0577350   0.1072087), wk =   0.0043384
        k(  140) = (   0.0166667   0.0288675   0.1072087), wk =   0.0043384
        k(  141) = (   0.0000000   0.0000000   0.1072087), wk =   0.0043384
        k(  142) = (   0.0250000   0.0144338   0.1072087), wk =   0.0043384
        k(  143) = (   0.0500000   0.0288675   0.1072087), wk =   0.0043384
        k(  144) = (   0.0750000   0.0433013   0.1072087), wk =   0.0043384
        k(  145) = (   0.1000000   0.0577350   0.1072087), wk =   0.0043384
        k(  146) = (   0.1250000   0.0721688   0.1072087), wk =   0.0043384
        k(  147) = (   0.1500000   0.0866025   0.1072087), wk =   0.0043384
        k(  148) = (   0.1750000   0.1010363   0.1072087), wk =   0.0043384
        k(  149) = (   0.2000000   0.1154701   0.1072087), wk =   0.0043384
        k(  150) = (   0.2250000   0.1299038   0.1072087), wk =   0.0043384
        k(  151) = (   0.2500000   0.1443376   0.1072087), wk =   0.0043384
        k(  152) = (   0.2750000   0.1587713   0.1072087), wk =   0.0043384
        k(  153) = (   0.3000000   0.1732051   0.1072087), wk =   0.0043384
        k(  154) = (   0.3250000   0.1876388   0.1072087), wk =   0.0043384
        k(  155) = (   0.3500000   0.2020726   0.1072087), wk =   0.0043384
        k(  156) = (   0.3750000   0.2165064   0.1072087), wk =   0.0043384
        k(  157) = (   0.4000000   0.2309401   0.1072087), wk =   0.0043384
        k(  158) = (   0.4250000   0.2453739   0.1072087), wk =   0.0043384
        k(  159) = (   0.4500000   0.2598076   0.1072087), wk =   0.0043384
        k(  160) = (   0.4750000   0.2742414   0.1072087), wk =   0.0043384
        k(  161) = (   0.5000000   0.2886751   0.1072087), wk =   0.0043384
        k(  162) = (   0.5000000   0.2886751   0.1018482), wk =   0.0043384
        k(  163) = (   0.5000000   0.2886751   0.0964878), wk =   0.0043384
        k(  164) = (   0.5000000   0.2886751   0.0911274), wk =   0.0043384
        k(  165) = (   0.5000000   0.2886751   0.0857669), wk =   0.0043384
        k(  166) = (   0.5000000   0.2886751   0.0804065), wk =   0.0043384
        k(  167) = (   0.5000000   0.2886751   0.0750461), wk =   0.0043384
        k(  168) = (   0.5000000   0.2886751   0.0696856), wk =   0.0043384
        k(  169) = (   0.5000000   0.2886751   0.0643252), wk =   0.0043384
        k(  170) = (   0.5000000   0.2886751   0.0589648), wk =   0.0043384
        k(  171) = (   0.5000000   0.2886751   0.0536043), wk =   0.0043384
        k(  172) = (   0.5000000   0.2886751   0.0482439), wk =   0.0043384
        k(  173) = (   0.5000000   0.2886751   0.0428835), wk =   0.0043384
        k(  174) = (   0.5000000   0.2886751   0.0375230), wk =   0.0043384
        k(  175) = (   0.5000000   0.2886751   0.0321626), wk =   0.0043384
        k(  176) = (   0.5000000   0.2886751   0.0268022), wk =   0.0043384
        k(  177) = (   0.5000000   0.2886751   0.0214417), wk =   0.0043384
        k(  178) = (   0.5000000   0.2886751   0.0160813), wk =   0.0043384
        k(  179) = (   0.5000000   0.2886751   0.0107209), wk =   0.0043384
        k(  180) = (   0.5000000   0.2886751   0.0053604), wk =   0.0043384
        k(  181) = (   0.5000000   0.2886751   0.0000000), wk =   0.0043384
        k(  182) = (   0.4916667   0.3031089   0.0053604), wk =   0.0043384
        k(  183) = (   0.4833333   0.3175426   0.0107209), wk =   0.0043384
        k(  184) = (   0.4750000   0.3319764   0.0160813), wk =   0.0043384
        k(  185) = (   0.4666667   0.3464102   0.0214417), wk =   0.0043384
        k(  186) = (   0.4583333   0.3608439   0.0268022), wk =   0.0043384
        k(  187) = (   0.4500000   0.3752777   0.0321626), wk =   0.0043384
        k(  188) = (   0.4416667   0.3897114   0.0375230), wk =   0.0043384
        k(  189) = (   0.4333333   0.4041452   0.0428835), wk =   0.0043384
        k(  190) = (   0.4250000   0.4185789   0.0482439), wk =   0.0043384
        k(  191) = (   0.4166667   0.4330127   0.0536043), wk =   0.0043384
        k(  192) = (   0.4083333   0.4474465   0.0589648), wk =   0.0043384
        k(  193) = (   0.4000000   0.4618802   0.0643252), wk =   0.0043384
        k(  194) = (   0.3916667   0.4763140   0.0696856), wk =   0.0043384
        k(  195) = (   0.3833333   0.4907477   0.0750461), wk =   0.0043384
        k(  196) = (   0.3750000   0.5051815   0.0804065), wk =   0.0043384
        k(  197) = (   0.3666667   0.5196152   0.0857669), wk =   0.0043384
        k(  198) = (   0.3583333   0.5340490   0.0911274), wk =   0.0043384
        k(  199) = (   0.3500000   0.5484828   0.0964878), wk =   0.0043384
        k(  200) = (   0.3416667   0.5629165   0.1018482), wk =   0.0043384
        k(  201) = (   0.3333333   0.5773503   0.1072087), wk =   0.0043384
        k(  202) = (   0.3333333   0.5773503   0.1018482), wk =   0.0043384
        k(  203) = (   0.3333333   0.5773503   0.0964878), wk =   0.0043384
        k(  204) = (   0.3333333   0.5773503   0.0911274), wk =   0.0043384
        k(  205) = (   0.3333333   0.5773503   0.0857669), wk =   0.0043384
        k(  206) = (   0.3333333   0.5773503   0.0804065), wk =   0.0043384
        k(  207) = (   0.3333333   0.5773503   0.0750461), wk =   0.0043384
        k(  208) = (   0.3333333   0.5773503   0.0696856), wk =   0.0043384
        k(  209) = (   0.3333333   0.5773503   0.0643252), wk =   0.0043384
        k(  210) = (   0.3333333   0.5773503   0.0589648), wk =   0.0043384
        k(  211) = (   0.3333333   0.5773503   0.0536043), wk =   0.0043384
        k(  212) = (   0.3333333   0.5773503   0.0482439), wk =   0.0043384
        k(  213) = (   0.3333333   0.5773503   0.0428835), wk =   0.0043384
        k(  214) = (   0.3333333   0.5773503   0.0375230), wk =   0.0043384
        k(  215) = (   0.3333333   0.5773503   0.0321626), wk =   0.0043384
        k(  216) = (   0.3333333   0.5773503   0.0268022), wk =   0.0043384
        k(  217) = (   0.3333333   0.5773503   0.0214417), wk =   0.0043384
        k(  218) = (   0.3333333   0.5773503   0.0160813), wk =   0.0043384
        k(  219) = (   0.3333333   0.5773503   0.0107209), wk =   0.0043384
        k(  220) = (   0.3333333   0.5773503   0.0053604), wk =   0.0043384
        k(  221) = (   0.3333333   0.5773503   0.0000000), wk =   0.0043384
        k(  222) = (   0.3166667   0.5484828   0.0000000), wk =   0.0043384
        k(  223) = (   0.3000000   0.5196152   0.0000000), wk =   0.0043384
        k(  224) = (   0.2833333   0.4907477   0.0000000), wk =   0.0043384
        k(  225) = (   0.2666667   0.4618802   0.0000000), wk =   0.0043384
        k(  226) = (   0.2500000   0.4330127   0.0000000), wk =   0.0043384
        k(  227) = (   0.2333333   0.4041452   0.0000000), wk =   0.0043384
        k(  228) = (   0.2166667   0.3752777   0.0000000), wk =   0.0043384
        k(  229) = (   0.2000000   0.3464102   0.0000000), wk =   0.0043384
        k(  230) = (   0.1833333   0.3175426   0.0000000), wk =   0.0043384
        k(  231) = (   0.1666667   0.2886751   0.0000000), wk =   0.0043384
        k(  232) = (   0.1500000   0.2598076   0.0000000), wk =   0.0043384
        k(  233) = (   0.1333333   0.2309401   0.0000000), wk =   0.0043384
        k(  234) = (   0.1166667   0.2020726   0.0000000), wk =   0.0043384
        k(  235) = (   0.1000000   0.1732051   0.0000000), wk =   0.0043384
        k(  236) = (   0.0833333   0.1443376   0.0000000), wk =   0.0043384
        k(  237) = (   0.0666667   0.1154701   0.0000000), wk =   0.0043384
        k(  238) = (   0.0500000   0.0866025   0.0000000), wk =   0.0043384
        k(  239) = (   0.0333333   0.0577350   0.0000000), wk =   0.0043384
        k(  240) = (   0.0166667   0.0288675   0.0000000), wk =   0.0043384
        k(  241) = (   0.0000000   0.0000000   0.0000000), wk =   0.0043384
        k(  242) = (  -0.0250000  -0.0144338   0.0000000), wk =   0.0043384
        k(  243) = (  -0.0500000  -0.0288675   0.0000000), wk =   0.0043384
        k(  244) = (  -0.0750000  -0.0433013   0.0000000), wk =   0.0043384
        k(  245) = (  -0.1000000  -0.0577350   0.0000000), wk =   0.0043384
        k(  246) = (  -0.1250000  -0.0721688   0.0000000), wk =   0.0043384
        k(  247) = (  -0.1500000  -0.0866025   0.0000000), wk =   0.0043384
        k(  248) = (  -0.1750000  -0.1010363   0.0000000), wk =   0.0043384
        k(  249) = (  -0.2000000  -0.1154701   0.0000000), wk =   0.0043384
        k(  250) = (  -0.2250000  -0.1299038   0.0000000), wk =   0.0043384
        k(  251) = (  -0.2500000  -0.1443376   0.0000000), wk =   0.0043384
        k(  252) = (  -0.2750000  -0.1587713   0.0000000), wk =   0.0043384
        k(  253) = (  -0.3000000  -0.1732051   0.0000000), wk =   0.0043384
        k(  254) = (  -0.3250000  -0.1876388   0.0000000), wk =   0.0043384
        k(  255) = (  -0.3500000  -0.2020726   0.0000000), wk =   0.0043384
        k(  256) = (  -0.3750000  -0.2165064   0.0000000), wk =   0.0043384
        k(  257) = (  -0.4000000  -0.2309401   0.0000000), wk =   0.0043384
        k(  258) = (  -0.4250000  -0.2453739   0.0000000), wk =   0.0043384
        k(  259) = (  -0.4500000  -0.2598076   0.0000000), wk =   0.0043384
        k(  260) = (  -0.4750000  -0.2742414   0.0000000), wk =   0.0043384
        k(  261) = (  -0.5000000  -0.2886751   0.0000000), wk =   0.0043384
        k(  262) = (  -0.4916667  -0.3031089   0.0000000), wk =   0.0043384
        k(  263) = (  -0.4833333  -0.3175426   0.0000000), wk =   0.0043384
        k(  264) = (  -0.4750000  -0.3319764   0.0000000), wk =   0.0043384
        k(  265) = (  -0.4666667  -0.3464102   0.0000000), wk =   0.0043384
        k(  266) = (  -0.4583333  -0.3608439   0.0000000), wk =   0.0043384
        k(  267) = (  -0.4500000  -0.3752777   0.0000000), wk =   0.0043384
        k(  268) = (  -0.4416667  -0.3897114   0.0000000), wk =   0.0043384
        k(  269) = (  -0.4333333  -0.4041452   0.0000000), wk =   0.0043384
        k(  270) = (  -0.4250000  -0.4185789   0.0000000), wk =   0.0043384
        k(  271) = (  -0.4166667  -0.4330127   0.0000000), wk =   0.0043384
        k(  272) = (  -0.4083333  -0.4474465   0.0000000), wk =   0.0043384
        k(  273) = (  -0.4000000  -0.4618802   0.0000000), wk =   0.0043384
        k(  274) = (  -0.3916667  -0.4763140   0.0000000), wk =   0.0043384
        k(  275) = (  -0.3833333  -0.4907477   0.0000000), wk =   0.0043384
        k(  276) = (  -0.3750000  -0.5051815   0.0000000), wk =   0.0043384
        k(  277) = (  -0.3666667  -0.5196152   0.0000000), wk =   0.0043384
        k(  278) = (  -0.3583333  -0.5340490   0.0000000), wk =   0.0043384
        k(  279) = (  -0.3500000  -0.5484828   0.0000000), wk =   0.0043384
        k(  280) = (  -0.3416667  -0.5629165   0.0000000), wk =   0.0043384
        k(  281) = (  -0.3333333  -0.5773503   0.0000000), wk =   0.0043384
        k(  282) = (  -0.3166667  -0.5484828   0.0000000), wk =   0.0043384
        k(  283) = (  -0.3000000  -0.5196152   0.0000000), wk =   0.0043384
        k(  284) = (  -0.2833333  -0.4907477   0.0000000), wk =   0.0043384
        k(  285) = (  -0.2666667  -0.4618802   0.0000000), wk =   0.0043384
        k(  286) = (  -0.2500000  -0.4330127   0.0000000), wk =   0.0043384
        k(  287) = (  -0.2333333  -0.4041452   0.0000000), wk =   0.0043384
        k(  288) = (  -0.2166667  -0.3752777   0.0000000), wk =   0.0043384
        k(  289) = (  -0.2000000  -0.3464102   0.0000000), wk =   0.0043384
        k(  290) = (  -0.1833333  -0.3175426   0.0000000), wk =   0.0043384
        k(  291) = (  -0.1666667  -0.2886751   0.0000000), wk =   0.0043384
        k(  292) = (  -0.1500000  -0.2598076   0.0000000), wk =   0.0043384
        k(  293) = (  -0.1333333  -0.2309401   0.0000000), wk =   0.0043384
        k(  294) = (  -0.1166667  -0.2020726   0.0000000), wk =   0.0043384
        k(  295) = (  -0.1000000  -0.1732051   0.0000000), wk =   0.0043384
        k(  296) = (  -0.0833333  -0.1443376   0.0000000), wk =   0.0043384
        k(  297) = (  -0.0666667  -0.1154701   0.0000000), wk =   0.0043384
        k(  298) = (  -0.0500000  -0.0866025   0.0000000), wk =   0.0043384
        k(  299) = (  -0.0333333  -0.0577350   0.0000000), wk =   0.0043384
        k(  300) = (  -0.0166667  -0.0288675   0.0000000), wk =   0.0043384
        k(  301) = (   0.0000000   0.0000000   0.0000000), wk =   0.0043384
        k(  302) = (   0.0000000   0.0000000  -0.0053604), wk =   0.0043384
        k(  303) = (   0.0000000   0.0000000  -0.0107209), wk =   0.0043384
        k(  304) = (   0.0000000   0.0000000  -0.0160813), wk =   0.0043384
        k(  305) = (   0.0000000   0.0000000  -0.0214417), wk =   0.0043384
        k(  306) = (   0.0000000   0.0000000  -0.0268022), wk =   0.0043384
        k(  307) = (   0.0000000   0.0000000  -0.0321626), wk =   0.0043384
        k(  308) = (   0.0000000   0.0000000  -0.0375230), wk =   0.0043384
        k(  309) = (   0.0000000   0.0000000  -0.0428835), wk =   0.0043384
        k(  310) = (   0.0000000   0.0000000  -0.0482439), wk =   0.0043384
        k(  311) = (   0.0000000   0.0000000  -0.0536043), wk =   0.0043384
        k(  312) = (   0.0000000   0.0000000  -0.0589648), wk =   0.0043384
        k(  313) = (   0.0000000   0.0000000  -0.0643252), wk =   0.0043384
        k(  314) = (   0.0000000   0.0000000  -0.0696856), wk =   0.0043384
        k(  315) = (   0.0000000   0.0000000  -0.0750461), wk =   0.0043384
        k(  316) = (   0.0000000   0.0000000  -0.0804065), wk =   0.0043384
        k(  317) = (   0.0000000   0.0000000  -0.0857669), wk =   0.0043384
        k(  318) = (   0.0000000   0.0000000  -0.0911274), wk =   0.0043384
        k(  319) = (   0.0000000   0.0000000  -0.0964878), wk =   0.0043384
        k(  320) = (   0.0000000   0.0000000  -0.1018482), wk =   0.0043384
        k(  321) = (   0.0000000   0.0000000  -0.1072087), wk =   0.0043384
        k(  322) = (  -0.0250000  -0.0144338  -0.1072087), wk =   0.0043384
        k(  323) = (  -0.0500000  -0.0288675  -0.1072087), wk =   0.0043384
        k(  324) = (  -0.0750000  -0.0433013  -0.1072087), wk =   0.0043384
        k(  325) = (  -0.1000000  -0.0577350  -0.1072087), wk =   0.0043384
        k(  326) = (  -0.1250000  -0.0721688  -0.1072087), wk =   0.0043384
        k(  327) = (  -0.1500000  -0.0866025  -0.1072087), wk =   0.0043384
        k(  328) = (  -0.1750000  -0.1010363  -0.1072087), wk =   0.0043384
        k(  329) = (  -0.2000000  -0.1154701  -0.1072087), wk =   0.0043384
        k(  330) = (  -0.2250000  -0.1299038  -0.1072087), wk =   0.0043384
        k(  331) = (  -0.2500000  -0.1443376  -0.1072087), wk =   0.0043384
        k(  332) = (  -0.2750000  -0.1587713  -0.1072087), wk =   0.0043384
        k(  333) = (  -0.3000000  -0.1732051  -0.1072087), wk =   0.0043384
        k(  334) = (  -0.3250000  -0.1876388  -0.1072087), wk =   0.0043384
        k(  335) = (  -0.3500000  -0.2020726  -0.1072087), wk =   0.0043384
        k(  336) = (  -0.3750000  -0.2165064  -0.1072087), wk =   0.0043384
        k(  337) = (  -0.4000000  -0.2309401  -0.1072087), wk =   0.0043384
        k(  338) = (  -0.4250000  -0.2453739  -0.1072087), wk =   0.0043384
        k(  339) = (  -0.4500000  -0.2598076  -0.1072087), wk =   0.0043384
        k(  340) = (  -0.4750000  -0.2742414  -0.1072087), wk =   0.0043384
        k(  341) = (  -0.5000000  -0.2886751  -0.1072087), wk =   0.0043384
        k(  342) = (  -0.4916667  -0.3031089  -0.1072087), wk =   0.0043384
        k(  343) = (  -0.4833333  -0.3175426  -0.1072087), wk =   0.0043384
        k(  344) = (  -0.4750000  -0.3319764  -0.1072087), wk =   0.0043384
        k(  345) = (  -0.4666667  -0.3464102  -0.1072087), wk =   0.0043384
        k(  346) = (  -0.4583333  -0.3608439  -0.1072087), wk =   0.0043384
        k(  347) = (  -0.4500000  -0.3752777  -0.1072087), wk =   0.0043384
        k(  348) = (  -0.4416667  -0.3897114  -0.1072087), wk =   0.0043384
        k(  349) = (  -0.4333333  -0.4041452  -0.1072087), wk =   0.0043384
        k(  350) = (  -0.4250000  -0.4185789  -0.1072087), wk =   0.0043384
        k(  351) = (  -0.4166667  -0.4330127  -0.1072087), wk =   0.0043384
        k(  352) = (  -0.4083333  -0.4474465  -0.1072087), wk =   0.0043384
        k(  353) = (  -0.4000000  -0.4618802  -0.1072087), wk =   0.0043384
        k(  354) = (  -0.3916667  -0.4763140  -0.1072087), wk =   0.0043384
        k(  355) = (  -0.3833333  -0.4907477  -0.1072087), wk =   0.0043384
        k(  356) = (  -0.3750000  -0.5051815  -0.1072087), wk =   0.0043384
        k(  357) = (  -0.3666667  -0.5196152  -0.1072087), wk =   0.0043384
        k(  358) = (  -0.3583333  -0.5340490  -0.1072087), wk =   0.0043384
        k(  359) = (  -0.3500000  -0.5484828  -0.1072087), wk =   0.0043384
        k(  360) = (  -0.3416667  -0.5629165  -0.1072087), wk =   0.0043384
        k(  361) = (  -0.3333333  -0.5773503  -0.1072087), wk =   0.0043384
        k(  362) = (  -0.3166667  -0.5484828  -0.1072087), wk =   0.0043384
        k(  363) = (  -0.3000000  -0.5196152  -0.1072087), wk =   0.0043384
        k(  364) = (  -0.2833333  -0.4907477  -0.1072087), wk =   0.0043384
        k(  365) = (  -0.2666667  -0.4618802  -0.1072087), wk =   0.0043384
        k(  366) = (  -0.2500000  -0.4330127  -0.1072087), wk =   0.0043384
        k(  367) = (  -0.2333333  -0.4041452  -0.1072087), wk =   0.0043384
        k(  368) = (  -0.2166667  -0.3752777  -0.1072087), wk =   0.0043384
        k(  369) = (  -0.2000000  -0.3464102  -0.1072087), wk =   0.0043384
        k(  370) = (  -0.1833333  -0.3175426  -0.1072087), wk =   0.0043384
        k(  371) = (  -0.1666667  -0.2886751  -0.1072087), wk =   0.0043384
        k(  372) = (  -0.1500000  -0.2598076  -0.1072087), wk =   0.0043384
        k(  373) = (  -0.1333333  -0.2309401  -0.1072087), wk =   0.0043384
        k(  374) = (  -0.1166667  -0.2020726  -0.1072087), wk =   0.0043384
        k(  375) = (  -0.1000000  -0.1732051  -0.1072087), wk =   0.0043384
        k(  376) = (  -0.0833333  -0.1443376  -0.1072087), wk =   0.0043384
        k(  377) = (  -0.0666667  -0.1154701  -0.1072087), wk =   0.0043384
        k(  378) = (  -0.0500000  -0.0866025  -0.1072087), wk =   0.0043384
        k(  379) = (  -0.0333333  -0.0577350  -0.1072087), wk =   0.0043384
        k(  380) = (  -0.0166667  -0.0288675  -0.1072087), wk =   0.0043384
        k(  381) = (   0.0000000   0.0000000  -0.1072087), wk =   0.0043384
        k(  382) = (  -0.0250000  -0.0144338  -0.1072087), wk =   0.0043384
        k(  383) = (  -0.0500000  -0.0288675  -0.1072087), wk =   0.0043384
        k(  384) = (  -0.0750000  -0.0433013  -0.1072087), wk =   0.0043384
        k(  385) = (  -0.1000000  -0.0577350  -0.1072087), wk =   0.0043384
        k(  386) = (  -0.1250000  -0.0721688  -0.1072087), wk =   0.0043384
        k(  387) = (  -0.1500000  -0.0866025  -0.1072087), wk =   0.0043384
        k(  388) = (  -0.1750000  -0.1010363  -0.1072087), wk =   0.0043384
        k(  389) = (  -0.2000000  -0.1154701  -0.1072087), wk =   0.0043384
        k(  390) = (  -0.2250000  -0.1299038  -0.1072087), wk =   0.0043384
        k(  391) = (  -0.2500000  -0.1443376  -0.1072087), wk =   0.0043384
        k(  392) = (  -0.2750000  -0.1587713  -0.1072087), wk =   0.0043384
        k(  393) = (  -0.3000000  -0.1732051  -0.1072087), wk =   0.0043384
        k(  394) = (  -0.3250000  -0.1876388  -0.1072087), wk =   0.0043384
        k(  395) = (  -0.3500000  -0.2020726  -0.1072087), wk =   0.0043384
        k(  396) = (  -0.3750000  -0.2165064  -0.1072087), wk =   0.0043384
        k(  397) = (  -0.4000000  -0.2309401  -0.1072087), wk =   0.0043384
        k(  398) = (  -0.4250000  -0.2453739  -0.1072087), wk =   0.0043384
        k(  399) = (  -0.4500000  -0.2598076  -0.1072087), wk =   0.0043384
        k(  400) = (  -0.4750000  -0.2742414  -0.1072087), wk =   0.0043384
        k(  401) = (  -0.5000000  -0.2886751  -0.1072087), wk =   0.0043384
        k(  402) = (  -0.5000000  -0.2886751  -0.1018482), wk =   0.0043384
        k(  403) = (  -0.5000000  -0.2886751  -0.0964878), wk =   0.0043384
        k(  404) = (  -0.5000000  -0.2886751  -0.0911274), wk =   0.0043384
        k(  405) = (  -0.5000000  -0.2886751  -0.0857669), wk =   0.0043384
        k(  406) = (  -0.5000000  -0.2886751  -0.0804065), wk =   0.0043384
        k(  407) = (  -0.5000000  -0.2886751  -0.0750461), wk =   0.0043384
        k(  408) = (  -0.5000000  -0.2886751  -0.0696856), wk =   0.0043384
        k(  409) = (  -0.5000000  -0.2886751  -0.0643252), wk =   0.0043384
        k(  410) = (  -0.5000000  -0.2886751  -0.0589648), wk =   0.0043384
        k(  411) = (  -0.5000000  -0.2886751  -0.0536043), wk =   0.0043384
        k(  412) = (  -0.5000000  -0.2886751  -0.0482439), wk =   0.0043384
        k(  413) = (  -0.5000000  -0.2886751  -0.0428835), wk =   0.0043384
        k(  414) = (  -0.5000000  -0.2886751  -0.0375230), wk =   0.0043384
        k(  415) = (  -0.5000000  -0.2886751  -0.0321626), wk =   0.0043384
        k(  416) = (  -0.5000000  -0.2886751  -0.0268022), wk =   0.0043384
        k(  417) = (  -0.5000000  -0.2886751  -0.0214417), wk =   0.0043384
        k(  418) = (  -0.5000000  -0.2886751  -0.0160813), wk =   0.0043384
        k(  419) = (  -0.5000000  -0.2886751  -0.0107209), wk =   0.0043384
        k(  420) = (  -0.5000000  -0.2886751  -0.0053604), wk =   0.0043384
        k(  421) = (  -0.5000000  -0.2886751   0.0000000), wk =   0.0043384
        k(  422) = (  -0.4916667  -0.3031089  -0.0053604), wk =   0.0043384
        k(  423) = (  -0.4833333  -0.3175426  -0.0107209), wk =   0.0043384
        k(  424) = (  -0.4750000  -0.3319764  -0.0160813), wk =   0.0043384
        k(  425) = (  -0.4666667  -0.3464102  -0.0214417), wk =   0.0043384
        k(  426) = (  -0.4583333  -0.3608439  -0.0268022), wk =   0.0043384
        k(  427) = (  -0.4500000  -0.3752777  -0.0321626), wk =   0.0043384
        k(  428) = (  -0.4416667  -0.3897114  -0.0375230), wk =   0.0043384
        k(  429) = (  -0.4333333  -0.4041452  -0.0428835), wk =   0.0043384
        k(  430) = (  -0.4250000  -0.4185789  -0.0482439), wk =   0.0043384
        k(  431) = (  -0.4166667  -0.4330127  -0.0536043), wk =   0.0043384
        k(  432) = (  -0.4083333  -0.4474465  -0.0589648), wk =   0.0043384
        k(  433) = (  -0.4000000  -0.4618802  -0.0643252), wk =   0.0043384
        k(  434) = (  -0.3916667  -0.4763140  -0.0696856), wk =   0.0043384
        k(  435) = (  -0.3833333  -0.4907477  -0.0750461), wk =   0.0043384
        k(  436) = (  -0.3750000  -0.5051815  -0.0804065), wk =   0.0043384
        k(  437) = (  -0.3666667  -0.5196152  -0.0857669), wk =   0.0043384
        k(  438) = (  -0.3583333  -0.5340490  -0.0911274), wk =   0.0043384
        k(  439) = (  -0.3500000  -0.5484828  -0.0964878), wk =   0.0043384
        k(  440) = (  -0.3416667  -0.5629165  -0.1018482), wk =   0.0043384
        k(  441) = (  -0.3333333  -0.5773503  -0.1072087), wk =   0.0043384
        k(  442) = (  -0.3333333  -0.5773503  -0.1018482), wk =   0.0043384
        k(  443) = (  -0.3333333  -0.5773503  -0.0964878), wk =   0.0043384
        k(  444) = (  -0.3333333  -0.5773503  -0.0911274), wk =   0.0043384
        k(  445) = (  -0.3333333  -0.5773503  -0.0857669), wk =   0.0043384
        k(  446) = (  -0.3333333  -0.5773503  -0.0804065), wk =   0.0043384
        k(  447) = (  -0.3333333  -0.5773503  -0.0750461), wk =   0.0043384
        k(  448) = (  -0.3333333  -0.5773503  -0.0696856), wk =   0.0043384
        k(  449) = (  -0.3333333  -0.5773503  -0.0643252), wk =   0.0043384
        k(  450) = (  -0.3333333  -0.5773503  -0.0589648), wk =   0.0043384
        k(  451) = (  -0.3333333  -0.5773503  -0.0536043), wk =   0.0043384
        k(  452) = (  -0.3333333  -0.5773503  -0.0482439), wk =   0.0043384
        k(  453) = (  -0.3333333  -0.5773503  -0.0428835), wk =   0.0043384
        k(  454) = (  -0.3333333  -0.5773503  -0.0375230), wk =   0.0043384
        k(  455) = (  -0.3333333  -0.5773503  -0.0321626), wk =   0.0043384
        k(  456) = (  -0.3333333  -0.5773503  -0.0268022), wk =   0.0043384
        k(  457) = (  -0.3333333  -0.5773503  -0.0214417), wk =   0.0043384
        k(  458) = (  -0.3333333  -0.5773503  -0.0160813), wk =   0.0043384
        k(  459) = (  -0.3333333  -0.5773503  -0.0107209), wk =   0.0043384
        k(  460) = (  -0.3333333  -0.5773503  -0.0053604), wk =   0.0043384
        k(  461) = (  -0.3333333  -0.5773503   0.0000000), wk =   0.0043384

                       cryst. coord.
        k(    1) = (   0.0000000   0.0000000   0.0000000), wk =   0.0043384
        k(    2) = (   0.0250000  -0.0000000   0.0000000), wk =   0.0043384
        k(    3) = (   0.0500000  -0.0000000   0.0000000), wk =   0.0043384
        k(    4) = (   0.0750000   0.0000000   0.0000000), wk =   0.0043384
        k(    5) = (   0.1000000  -0.0000000   0.0000000), wk =   0.0043384
        k(    6) = (   0.1250000  -0.0000000   0.0000000), wk =   0.0043384
        k(    7) = (   0.1500000   0.0000000   0.0000000), wk =   0.0043384
        k(    8) = (   0.1750000   0.0000000   0.0000000), wk =   0.0043384
        k(    9) = (   0.2000000  -0.0000000   0.0000000), wk =   0.0043384
        k(   10) = (   0.2250000   0.0000000   0.0000000), wk =   0.0043384
        k(   11) = (   0.2500000  -0.0000000   0.0000000), wk =   0.0043384
        k(   12) = (   0.2750000   0.0000000   0.0000000), wk =   0.0043384
        k(   13) = (   0.3000000   0.0000000   0.0000000), wk =   0.0043384
        k(   14) = (   0.3250000   0.0000000   0.0000000), wk =   0.0043384
        k(   15) = (   0.3500000   0.0000000   0.0000000), wk =   0.0043384
        k(   16) = (   0.3750000  -0.0000000   0.0000000), wk =   0.0043384
        k(   17) = (   0.4000000  -0.0000000   0.0000000), wk =   0.0043384
        k(   18) = (   0.4250000   0.0000000   0.0000000), wk =   0.0043384
        k(   19) = (   0.4500000   0.0000000   0.0000000), wk =   0.0043384
        k(   20) = (   0.4750000  -0.0000000   0.0000000), wk =   0.0043384
        k(   21) = (   0.5000000  -0.0000000   0.0000000), wk =   0.0043384
        k(   22) = (   0.4916667   0.0166667   0.0000000), wk =   0.0043384
        k(   23) = (   0.4833333   0.0333333   0.0000000), wk =   0.0043384
        k(   24) = (   0.4750000   0.0500000   0.0000000), wk =   0.0043384
        k(   25) = (   0.4666667   0.0666667   0.0000000), wk =   0.0043384
        k(   26) = (   0.4583333   0.0833333   0.0000000), wk =   0.0043384
        k(   27) = (   0.4500000   0.1000000   0.0000000), wk =   0.0043384
        k(   28) = (   0.4416667   0.1166667   0.0000000), wk =   0.0043384
        k(   29) = (   0.4333333   0.1333333   0.0000000), wk =   0.0043384
        k(   30) = (   0.4250000   0.1500000   0.0000000), wk =   0.0043384
        k(   31) = (   0.4166667   0.1666667   0.0000000), wk =   0.0043384
        k(   32) = (   0.4083333   0.1833333   0.0000000), wk =   0.0043384
        k(   33) = (   0.4000000   0.2000000   0.0000000), wk =   0.0043384
        k(   34) = (   0.3916667   0.2166667   0.0000000), wk =   0.0043384
        k(   35) = (   0.3833333   0.2333333   0.0000000), wk =   0.0043384
        k(   36) = (   0.3750000   0.2500000   0.0000000), wk =   0.0043384
        k(   37) = (   0.3666667   0.2666667   0.0000000), wk =   0.0043384
        k(   38) = (   0.3583333   0.2833333   0.0000000), wk =   0.0043384
        k(   39) = (   0.3500000   0.3000000   0.0000000), wk =   0.0043384
        k(   40) = (   0.3416667   0.3166667   0.0000000), wk =   0.0043384
        k(   41) = (   0.3333333   0.3333333   0.0000000), wk =   0.0043384
        k(   42) = (   0.3166667   0.3166667   0.0000000), wk =   0.0043384
        k(   43) = (   0.3000000   0.3000000   0.0000000), wk =   0.0043384
        k(   44) = (   0.2833333   0.2833333   0.0000000), wk =   0.0043384
        k(   45) = (   0.2666667   0.2666667   0.0000000), wk =   0.0043384
        k(   46) = (   0.2500000   0.2500000   0.0000000), wk =   0.0043384
        k(   47) = (   0.2333333   0.2333333   0.0000000), wk =   0.0043384
        k(   48) = (   0.2166667   0.2166667   0.0000000), wk =   0.0043384
        k(   49) = (   0.2000000   0.2000000   0.0000000), wk =   0.0043384
        k(   50) = (   0.1833333   0.1833333   0.0000000), wk =   0.0043384
        k(   51) = (   0.1666667   0.1666667   0.0000000), wk =   0.0043384
        k(   52) = (   0.1500000   0.1500000   0.0000000), wk =   0.0043384
        k(   53) = (   0.1333333   0.1333333   0.0000000), wk =   0.0043384
        k(   54) = (   0.1166667   0.1166667   0.0000000), wk =   0.0043384
        k(   55) = (   0.1000000   0.1000000   0.0000000), wk =   0.0043384
        k(   56) = (   0.0833333   0.0833333   0.0000000), wk =   0.0043384
        k(   57) = (   0.0666667   0.0666667   0.0000000), wk =   0.0043384
        k(   58) = (   0.0500000   0.0500000   0.0000000), wk =   0.0043384
        k(   59) = (   0.0333333   0.0333333   0.0000000), wk =   0.0043384
        k(   60) = (   0.0166667   0.0166667   0.0000000), wk =   0.0043384
        k(   61) = (   0.0000000   0.0000000   0.0000000), wk =   0.0043384
        k(   62) = (   0.0000000   0.0000000   0.0250000), wk =   0.0043384
        k(   63) = (   0.0000000   0.0000000   0.0500000), wk =   0.0043384
        k(   64) = (   0.0000000   0.0000000   0.0750000), wk =   0.0043384
        k(   65) = (   0.0000000   0.0000000   0.1000000), wk =   0.0043384
        k(   66) = (   0.0000000   0.0000000   0.1250000), wk =   0.0043384
        k(   67) = (   0.0000000   0.0000000   0.1500000), wk =   0.0043384
        k(   68) = (   0.0000000   0.0000000   0.1750000), wk =   0.0043384
        k(   69) = (   0.0000000   0.0000000   0.2000000), wk =   0.0043384
        k(   70) = (   0.0000000   0.0000000   0.2250000), wk =   0.0043384
        k(   71) = (   0.0000000   0.0000000   0.2500000), wk =   0.0043384
        k(   72) = (   0.0000000   0.0000000   0.2750000), wk =   0.0043384
        k(   73) = (   0.0000000   0.0000000   0.3000000), wk =   0.0043384
        k(   74) = (   0.0000000   0.0000000   0.3250000), wk =   0.0043384
        k(   75) = (   0.0000000   0.0000000   0.3500000), wk =   0.0043384
        k(   76) = (   0.0000000   0.0000000   0.3750000), wk =   0.0043384
        k(   77) = (   0.0000000   0.0000000   0.4000000), wk =   0.0043384
        k(   78) = (   0.0000000   0.0000000   0.4250000), wk =   0.0043384
        k(   79) = (   0.0000000   0.0000000   0.4500000), wk =   0.0043384
        k(   80) = (   0.0000000   0.0000000   0.4750000), wk =   0.0043384
        k(   81) = (   0.0000000   0.0000000   0.5000000), wk =   0.0043384
        k(   82) = (   0.0250000  -0.0000000   0.5000000), wk =   0.0043384
        k(   83) = (   0.0500000  -0.0000000   0.5000000), wk =   0.0043384
        k(   84) = (   0.0750000   0.0000000   0.5000000), wk =   0.0043384
        k(   85) = (   0.1000000  -0.0000000   0.5000000), wk =   0.0043384
        k(   86) = (   0.1250000  -0.0000000   0.5000000), wk =   0.0043384
        k(   87) = (   0.1500000   0.0000000   0.5000000), wk =   0.0043384
        k(   88) = (   0.1750000   0.0000000   0.5000000), wk =   0.0043384
        k(   89) = (   0.2000000  -0.0000000   0.5000000), wk =   0.0043384
        k(   90) = (   0.2250000   0.0000000   0.5000000), wk =   0.0043384
        k(   91) = (   0.2500000  -0.0000000   0.5000000), wk =   0.0043384
        k(   92) = (   0.2750000   0.0000000   0.5000000), wk =   0.0043384
        k(   93) = (   0.3000000   0.0000000   0.5000000), wk =   0.0043384
        k(   94) = (   0.3250000   0.0000000   0.5000000), wk =   0.0043384
        k(   95) = (   0.3500000   0.0000000   0.5000000), wk =   0.0043384
        k(   96) = (   0.3750000  -0.0000000   0.5000000), wk =   0.0043384
        k(   97) = (   0.4000000  -0.0000000   0.5000000), wk =   0.0043384
        k(   98) = (   0.4250000   0.0000000   0.5000000), wk =   0.0043384
        k(   99) = (   0.4500000   0.0000000   0.5000000), wk =   0.0043384
        k(  100) = (   0.4750000  -0.0000000   0.5000000), wk =   0.0043384
        k(  101) = (   0.5000000  -0.0000000   0.5000000), wk =   0.0043384
        k(  102) = (   0.4916667   0.0166667   0.5000000), wk =   0.0043384
        k(  103) = (   0.4833333   0.0333333   0.5000000), wk =   0.0043384
        k(  104) = (   0.4750000   0.0500000   0.5000000), wk =   0.0043384
        k(  105) = (   0.4666667   0.0666667   0.5000000), wk =   0.0043384
        k(  106) = (   0.4583333   0.0833333   0.5000000), wk =   0.0043384
        k(  107) = (   0.4500000   0.1000000   0.5000000), wk =   0.0043384
        k(  108) = (   0.4416667   0.1166667   0.5000000), wk =   0.0043384
        k(  109) = (   0.4333333   0.1333333   0.5000000), wk =   0.0043384
        k(  110) = (   0.4250000   0.1500000   0.5000000), wk =   0.0043384
        k(  111) = (   0.4166667   0.1666667   0.5000000), wk =   0.0043384
        k(  112) = (   0.4083333   0.1833333   0.5000000), wk =   0.0043384
        k(  113) = (   0.4000000   0.2000000   0.5000000), wk =   0.0043384
        k(  114) = (   0.3916667   0.2166667   0.5000000), wk =   0.0043384
        k(  115) = (   0.3833333   0.2333333   0.5000000), wk =   0.0043384
        k(  116) = (   0.3750000   0.2500000   0.5000000), wk =   0.0043384
        k(  117) = (   0.3666667   0.2666667   0.5000000), wk =   0.0043384
        k(  118) = (   0.3583333   0.2833333   0.5000000), wk =   0.0043384
        k(  119) = (   0.3500000   0.3000000   0.5000000), wk =   0.0043384
        k(  120) = (   0.3416667   0.3166667   0.5000000), wk =   0.0043384
        k(  121) = (   0.3333333   0.3333333   0.5000000), wk =   0.0043384
        k(  122) = (   0.3166667   0.3166667   0.5000000), wk =   0.0043384
        k(  123) = (   0.3000000   0.3000000   0.5000000), wk =   0.0043384
        k(  124) = (   0.2833333   0.2833333   0.5000000), wk =   0.0043384
        k(  125) = (   0.2666667   0.2666667   0.5000000), wk =   0.0043384
        k(  126) = (   0.2500000   0.2500000   0.5000000), wk =   0.0043384
        k(  127) = (   0.2333333   0.2333333   0.5000000), wk =   0.0043384
        k(  128) = (   0.2166667   0.2166667   0.5000000), wk =   0.0043384
        k(  129) = (   0.2000000   0.2000000   0.5000000), wk =   0.0043384
        k(  130) = (   0.1833333   0.1833333   0.5000000), wk =   0.0043384
        k(  131) = (   0.1666667   0.1666667   0.5000000), wk =   0.0043384
        k(  132) = (   0.1500000   0.1500000   0.5000000), wk =   0.0043384
        k(  133) = (   0.1333333   0.1333333   0.5000000), wk =   0.0043384
        k(  134) = (   0.1166667   0.1166667   0.5000000), wk =   0.0043384
        k(  135) = (   0.1000000   0.1000000   0.5000000), wk =   0.0043384
        k(  136) = (   0.0833333   0.0833333   0.5000000), wk =   0.0043384
        k(  137) = (   0.0666667   0.0666667   0.5000000), wk =   0.0043384
        k(  138) = (   0.0500000   0.0500000   0.5000000), wk =   0.0043384
        k(  139) = (   0.0333333   0.0333333   0.5000000), wk =   0.0043384
        k(  140) = (   0.0166667   0.0166667   0.5000000), wk =   0.0043384
        k(  141) = (   0.0000000   0.0000000   0.5000000), wk =   0.0043384
        k(  142) = (   0.0250000  -0.0000000   0.5000000), wk =   0.0043384
        k(  143) = (   0.0500000  -0.0000000   0.5000000), wk =   0.0043384
        k(  144) = (   0.0750000   0.0000000   0.5000000), wk =   0.0043384
        k(  145) = (   0.1000000  -0.0000000   0.5000000), wk =   0.0043384
        k(  146) = (   0.1250000  -0.0000000   0.5000000), wk =   0.0043384
        k(  147) = (   0.1500000   0.0000000   0.5000000), wk =   0.0043384
        k(  148) = (   0.1750000   0.0000000   0.5000000), wk =   0.0043384
        k(  149) = (   0.2000000  -0.0000000   0.5000000), wk =   0.0043384
        k(  150) = (   0.2250000   0.0000000   0.5000000), wk =   0.0043384
        k(  151) = (   0.2500000  -0.0000000   0.5000000), wk =   0.0043384
        k(  152) = (   0.2750000   0.0000000   0.5000000), wk =   0.0043384
        k(  153) = (   0.3000000   0.0000000   0.5000000), wk =   0.0043384
        k(  154) = (   0.3250000   0.0000000   0.5000000), wk =   0.0043384
        k(  155) = (   0.3500000   0.0000000   0.5000000), wk =   0.0043384
        k(  156) = (   0.3750000  -0.0000000   0.5000000), wk =   0.0043384
        k(  157) = (   0.4000000  -0.0000000   0.5000000), wk =   0.0043384
        k(  158) = (   0.4250000   0.0000000   0.5000000), wk =   0.0043384
        k(  159) = (   0.4500000   0.0000000   0.5000000), wk =   0.0043384
        k(  160) = (   0.4750000  -0.0000000   0.5000000), wk =   0.0043384
        k(  161) = (   0.5000000  -0.0000000   0.5000000), wk =   0.0043384
        k(  162) = (   0.5000000  -0.0000000   0.4750000), wk =   0.0043384
        k(  163) = (   0.5000000  -0.0000000   0.4500000), wk =   0.0043384
        k(  164) = (   0.5000000  -0.0000000   0.4250000), wk =   0.0043384
        k(  165) = (   0.5000000  -0.0000000   0.4000000), wk =   0.0043384
        k(  166) = (   0.5000000  -0.0000000   0.3750000), wk =   0.0043384
        k(  167) = (   0.5000000  -0.0000000   0.3500000), wk =   0.0043384
        k(  168) = (   0.5000000  -0.0000000   0.3250000), wk =   0.0043384
        k(  169) = (   0.5000000  -0.0000000   0.3000000), wk =   0.0043384
        k(  170) = (   0.5000000  -0.0000000   0.2750000), wk =   0.0043384
        k(  171) = (   0.5000000  -0.0000000   0.2500000), wk =   0.0043384
        k(  172) = (   0.5000000  -0.0000000   0.2250000), wk =   0.0043384
        k(  173) = (   0.5000000  -0.0000000   0.2000000), wk =   0.0043384
        k(  174) = (   0.5000000  -0.0000000   0.1750000), wk =   0.0043384
        k(  175) = (   0.5000000  -0.0000000   0.1500000), wk =   0.0043384
        k(  176) = (   0.5000000  -0.0000000   0.1250000), wk =   0.0043384
        k(  177) = (   0.5000000  -0.0000000   0.1000000), wk =   0.0043384
        k(  178) = (   0.5000000  -0.0000000   0.0750000), wk =   0.0043384
        k(  179) = (   0.5000000  -0.0000000   0.0500000), wk =   0.0043384
        k(  180) = (   0.5000000  -0.0000000   0.0250000), wk =   0.0043384
        k(  181) = (   0.5000000  -0.0000000   0.0000000), wk =   0.0043384
        k(  182) = (   0.4916667   0.0166667   0.0250000), wk =   0.0043384
        k(  183) = (   0.4833333   0.0333333   0.0500000), wk =   0.0043384
        k(  184) = (   0.4750000   0.0500000   0.0750000), wk =   0.0043384
        k(  185) = (   0.4666667   0.0666667   0.1000000), wk =   0.0043384
        k(  186) = (   0.4583333   0.0833333   0.1250000), wk =   0.0043384
        k(  187) = (   0.4500000   0.1000000   0.1500000), wk =   0.0043384
        k(  188) = (   0.4416667   0.1166667   0.1750000), wk =   0.0043384
        k(  189) = (   0.4333333   0.1333333   0.2000000), wk =   0.0043384
        k(  190) = (   0.4250000   0.1500000   0.2250000), wk =   0.0043384
        k(  191) = (   0.4166667   0.1666667   0.2500000), wk =   0.0043384
        k(  192) = (   0.4083333   0.1833333   0.2750000), wk =   0.0043384
        k(  193) = (   0.4000000   0.2000000   0.3000000), wk =   0.0043384
        k(  194) = (   0.3916667   0.2166667   0.3250000), wk =   0.0043384
        k(  195) = (   0.3833333   0.2333333   0.3500000), wk =   0.0043384
        k(  196) = (   0.3750000   0.2500000   0.3750000), wk =   0.0043384
        k(  197) = (   0.3666667   0.2666667   0.4000000), wk =   0.0043384
        k(  198) = (   0.3583333   0.2833333   0.4250000), wk =   0.0043384
        k(  199) = (   0.3500000   0.3000000   0.4500000), wk =   0.0043384
        k(  200) = (   0.3416667   0.3166667   0.4750000), wk =   0.0043384
        k(  201) = (   0.3333333   0.3333333   0.5000000), wk =   0.0043384
        k(  202) = (   0.3333333   0.3333333   0.4750000), wk =   0.0043384
        k(  203) = (   0.3333333   0.3333333   0.4500000), wk =   0.0043384
        k(  204) = (   0.3333333   0.3333333   0.4250000), wk =   0.0043384
        k(  205) = (   0.3333333   0.3333333   0.4000000), wk =   0.0043384
        k(  206) = (   0.3333333   0.3333333   0.3750000), wk =   0.0043384
        k(  207) = (   0.3333333   0.3333333   0.3500000), wk =   0.0043384
        k(  208) = (   0.3333333   0.3333333   0.3250000), wk =   0.0043384
        k(  209) = (   0.3333333   0.3333333   0.3000000), wk =   0.0043384
        k(  210) = (   0.3333333   0.3333333   0.2750000), wk =   0.0043384
        k(  211) = (   0.3333333   0.3333333   0.2500000), wk =   0.0043384
        k(  212) = (   0.3333333   0.3333333   0.2250000), wk =   0.0043384
        k(  213) = (   0.3333333   0.3333333   0.2000000), wk =   0.0043384
        k(  214) = (   0.3333333   0.3333333   0.1750000), wk =   0.0043384
        k(  215) = (   0.3333333   0.3333333   0.1500000), wk =   0.0043384
        k(  216) = (   0.3333333   0.3333333   0.1250000), wk =   0.0043384
        k(  217) = (   0.3333333   0.3333333   0.1000000), wk =   0.0043384
        k(  218) = (   0.3333333   0.3333333   0.0750000), wk =   0.0043384
        k(  219) = (   0.3333333   0.3333333   0.0500000), wk =   0.0043384
        k(  220) = (   0.3333333   0.3333333   0.0250000), wk =   0.0043384
        k(  221) = (   0.3333333   0.3333333   0.0000000), wk =   0.0043384
        k(  222) = (   0.3166667   0.3166667   0.0000000), wk =   0.0043384
        k(  223) = (   0.3000000   0.3000000   0.0000000), wk =   0.0043384
        k(  224) = (   0.2833333   0.2833333   0.0000000), wk =   0.0043384
        k(  225) = (   0.2666667   0.2666667   0.0000000), wk =   0.0043384
        k(  226) = (   0.2500000   0.2500000   0.0000000), wk =   0.0043384
        k(  227) = (   0.2333333   0.2333333   0.0000000), wk =   0.0043384
        k(  228) = (   0.2166667   0.2166667   0.0000000), wk =   0.0043384
        k(  229) = (   0.2000000   0.2000000   0.0000000), wk =   0.0043384
        k(  230) = (   0.1833333   0.1833333   0.0000000), wk =   0.0043384
        k(  231) = (   0.1666667   0.1666667   0.0000000), wk =   0.0043384
        k(  232) = (   0.1500000   0.1500000   0.0000000), wk =   0.0043384
        k(  233) = (   0.1333333   0.1333333   0.0000000), wk =   0.0043384
        k(  234) = (   0.1166667   0.1166667   0.0000000), wk =   0.0043384
        k(  235) = (   0.1000000   0.1000000   0.0000000), wk =   0.0043384
        k(  236) = (   0.0833333   0.0833333   0.0000000), wk =   0.0043384
        k(  237) = (   0.0666667   0.0666667   0.0000000), wk =   0.0043384
        k(  238) = (   0.0500000   0.0500000   0.0000000), wk =   0.0043384
        k(  239) = (   0.0333333   0.0333333   0.0000000), wk =   0.0043384
        k(  240) = (   0.0166667   0.0166667   0.0000000), wk =   0.0043384
        k(  241) = (   0.0000000   0.0000000   0.0000000), wk =   0.0043384
        k(  242) = (  -0.0250000   0.0000000   0.0000000), wk =   0.0043384
        k(  243) = (  -0.0500000   0.0000000   0.0000000), wk =   0.0043384
        k(  244) = (  -0.0750000   0.0000000   0.0000000), wk =   0.0043384
        k(  245) = (  -0.1000000   0.0000000   0.0000000), wk =   0.0043384
        k(  246) = (  -0.1250000   0.0000000   0.0000000), wk =   0.0043384
        k(  247) = (  -0.1500000   0.0000000   0.0000000), wk =   0.0043384
        k(  248) = (  -0.1750000   0.0000000   0.0000000), wk =   0.0043384
        k(  249) = (  -0.2000000   0.0000000   0.0000000), wk =   0.0043384
        k(  250) = (  -0.2250000   0.0000000   0.0000000), wk =   0.0043384
        k(  251) = (  -0.2500000   0.0000000   0.0000000), wk =   0.0043384
        k(  252) = (  -0.2750000   0.0000000   0.0000000), wk =   0.0043384
        k(  253) = (  -0.3000000   0.0000000   0.0000000), wk =   0.0043384
        k(  254) = (  -0.3250000   0.0000000   0.0000000), wk =   0.0043384
        k(  255) = (  -0.3500000   0.0000000   0.0000000), wk =   0.0043384
        k(  256) = (  -0.3750000   0.0000000   0.0000000), wk =   0.0043384
        k(  257) = (  -0.4000000   0.0000000   0.0000000), wk =   0.0043384
        k(  258) = (  -0.4250000   0.0000000   0.0000000), wk =   0.0043384
        k(  259) = (  -0.4500000   0.0000000   0.0000000), wk =   0.0043384
        k(  260) = (  -0.4750000   0.0000000   0.0000000), wk =   0.0043384
        k(  261) = (  -0.5000000   0.0000000   0.0000000), wk =   0.0043384
        k(  262) = (  -0.4916667  -0.0166667   0.0000000), wk =   0.0043384
        k(  263) = (  -0.4833333  -0.0333333   0.0000000), wk =   0.0043384
        k(  264) = (  -0.4750000  -0.0500000   0.0000000), wk =   0.0043384
        k(  265) = (  -0.4666667  -0.0666667   0.0000000), wk =   0.0043384
        k(  266) = (  -0.4583333  -0.0833333   0.0000000), wk =   0.0043384
        k(  267) = (  -0.4500000  -0.1000000   0.0000000), wk =   0.0043384
        k(  268) = (  -0.4416667  -0.1166667   0.0000000), wk =   0.0043384
        k(  269) = (  -0.4333333  -0.1333333   0.0000000), wk =   0.0043384
        k(  270) = (  -0.4250000  -0.1500000   0.0000000), wk =   0.0043384
        k(  271) = (  -0.4166667  -0.1666667   0.0000000), wk =   0.0043384
        k(  272) = (  -0.4083333  -0.1833333   0.0000000), wk =   0.0043384
        k(  273) = (  -0.4000000  -0.2000000   0.0000000), wk =   0.0043384
        k(  274) = (  -0.3916667  -0.2166667   0.0000000), wk =   0.0043384
        k(  275) = (  -0.3833333  -0.2333333   0.0000000), wk =   0.0043384
        k(  276) = (  -0.3750000  -0.2500000   0.0000000), wk =   0.0043384
        k(  277) = (  -0.3666667  -0.2666667   0.0000000), wk =   0.0043384
        k(  278) = (  -0.3583333  -0.2833333   0.0000000), wk =   0.0043384
        k(  279) = (  -0.3500000  -0.3000000   0.0000000), wk =   0.0043384
        k(  280) = (  -0.3416667  -0.3166667   0.0000000), wk =   0.0043384
        k(  281) = (  -0.3333333  -0.3333333   0.0000000), wk =   0.0043384
        k(  282) = (  -0.3166667  -0.3166667   0.0000000), wk =   0.0043384
        k(  283) = (  -0.3000000  -0.3000000   0.0000000), wk =   0.0043384
        k(  284) = (  -0.2833333  -0.2833333   0.0000000), wk =   0.0043384
        k(  285) = (  -0.2666667  -0.2666667   0.0000000), wk =   0.0043384
        k(  286) = (  -0.2500000  -0.2500000   0.0000000), wk =   0.0043384
        k(  287) = (  -0.2333333  -0.2333333   0.0000000), wk =   0.0043384
        k(  288) = (  -0.2166667  -0.2166667   0.0000000), wk =   0.0043384
        k(  289) = (  -0.2000000  -0.2000000   0.0000000), wk =   0.0043384
        k(  290) = (  -0.1833333  -0.1833333   0.0000000), wk =   0.0043384
        k(  291) = (  -0.1666667  -0.1666667   0.0000000), wk =   0.0043384
        k(  292) = (  -0.1500000  -0.1500000   0.0000000), wk =   0.0043384
        k(  293) = (  -0.1333333  -0.1333333   0.0000000), wk =   0.0043384
        k(  294) = (  -0.1166667  -0.1166667   0.0000000), wk =   0.0043384
        k(  295) = (  -0.1000000  -0.1000000   0.0000000), wk =   0.0043384
        k(  296) = (  -0.0833333  -0.0833333   0.0000000), wk =   0.0043384
        k(  297) = (  -0.0666667  -0.0666667   0.0000000), wk =   0.0043384
        k(  298) = (  -0.0500000  -0.0500000   0.0000000), wk =   0.0043384
        k(  299) = (  -0.0333333  -0.0333333   0.0000000), wk =   0.0043384
        k(  300) = (  -0.0166667  -0.0166667   0.0000000), wk =   0.0043384
        k(  301) = (   0.0000000   0.0000000   0.0000000), wk =   0.0043384
        k(  302) = (   0.0000000   0.0000000  -0.0250000), wk =   0.0043384
        k(  303) = (   0.0000000   0.0000000  -0.0500000), wk =   0.0043384
        k(  304) = (   0.0000000   0.0000000  -0.0750000), wk =   0.0043384
        k(  305) = (   0.0000000   0.0000000  -0.1000000), wk =   0.0043384
        k(  306) = (   0.0000000   0.0000000  -0.1250000), wk =   0.0043384
        k(  307) = (   0.0000000   0.0000000  -0.1500000), wk =   0.0043384
        k(  308) = (   0.0000000   0.0000000  -0.1750000), wk =   0.0043384
        k(  309) = (   0.0000000   0.0000000  -0.2000000), wk =   0.0043384
        k(  310) = (   0.0000000   0.0000000  -0.2250000), wk =   0.0043384
        k(  311) = (   0.0000000   0.0000000  -0.2500000), wk =   0.0043384
        k(  312) = (   0.0000000   0.0000000  -0.2750000), wk =   0.0043384
        k(  313) = (   0.0000000   0.0000000  -0.3000000), wk =   0.0043384
        k(  314) = (   0.0000000   0.0000000  -0.3250000), wk =   0.0043384
        k(  315) = (   0.0000000   0.0000000  -0.3500000), wk =   0.0043384
        k(  316) = (   0.0000000   0.0000000  -0.3750000), wk =   0.0043384
        k(  317) = (   0.0000000   0.0000000  -0.4000000), wk =   0.0043384
        k(  318) = (   0.0000000   0.0000000  -0.4250000), wk =   0.0043384
        k(  319) = (   0.0000000   0.0000000  -0.4500000), wk =   0.0043384
        k(  320) = (   0.0000000   0.0000000  -0.4750000), wk =   0.0043384
        k(  321) = (   0.0000000   0.0000000  -0.5000000), wk =   0.0043384
        k(  322) = (  -0.0250000   0.0000000  -0.5000000), wk =   0.0043384
        k(  323) = (  -0.0500000   0.0000000  -0.5000000), wk =   0.0043384
        k(  324) = (  -0.0750000   0.0000000  -0.5000000), wk =   0.0043384
        k(  325) = (  -0.1000000   0.0000000  -0.5000000), wk =   0.0043384
        k(  326) = (  -0.1250000   0.0000000  -0.5000000), wk =   0.0043384
        k(  327) = (  -0.1500000   0.0000000  -0.5000000), wk =   0.0043384
        k(  328) = (  -0.1750000   0.0000000  -0.5000000), wk =   0.0043384
        k(  329) = (  -0.2000000   0.0000000  -0.5000000), wk =   0.0043384
        k(  330) = (  -0.2250000   0.0000000  -0.5000000), wk =   0.0043384
        k(  331) = (  -0.2500000   0.0000000  -0.5000000), wk =   0.0043384
        k(  332) = (  -0.2750000   0.0000000  -0.5000000), wk =   0.0043384
        k(  333) = (  -0.3000000   0.0000000  -0.5000000), wk =   0.0043384
        k(  334) = (  -0.3250000   0.0000000  -0.5000000), wk =   0.0043384
        k(  335) = (  -0.3500000   0.0000000  -0.5000000), wk =   0.0043384
        k(  336) = (  -0.3750000   0.0000000  -0.5000000), wk =   0.0043384
        k(  337) = (  -0.4000000   0.0000000  -0.5000000), wk =   0.0043384
        k(  338) = (  -0.4250000   0.0000000  -0.5000000), wk =   0.0043384
        k(  339) = (  -0.4500000   0.0000000  -0.5000000), wk =   0.0043384
        k(  340) = (  -0.4750000   0.0000000  -0.5000000), wk =   0.0043384
        k(  341) = (  -0.5000000   0.0000000  -0.5000000), wk =   0.0043384
        k(  342) = (  -0.4916667  -0.0166667  -0.5000000), wk =   0.0043384
        k(  343) = (  -0.4833333  -0.0333333  -0.5000000), wk =   0.0043384
        k(  344) = (  -0.4750000  -0.0500000  -0.5000000), wk =   0.0043384
        k(  345) = (  -0.4666667  -0.0666667  -0.5000000), wk =   0.0043384
        k(  346) = (  -0.4583333  -0.0833333  -0.5000000), wk =   0.0043384
        k(  347) = (  -0.4500000  -0.1000000  -0.5000000), wk =   0.0043384
        k(  348) = (  -0.4416667  -0.1166667  -0.5000000), wk =   0.0043384
        k(  349) = (  -0.4333333  -0.1333333  -0.5000000), wk =   0.0043384
        k(  350) = (  -0.4250000  -0.1500000  -0.5000000), wk =   0.0043384
        k(  351) = (  -0.4166667  -0.1666667  -0.5000000), wk =   0.0043384
        k(  352) = (  -0.4083333  -0.1833333  -0.5000000), wk =   0.0043384
        k(  353) = (  -0.4000000  -0.2000000  -0.5000000), wk =   0.0043384
        k(  354) = (  -0.3916667  -0.2166667  -0.5000000), wk =   0.0043384
        k(  355) = (  -0.3833333  -0.2333333  -0.5000000), wk =   0.0043384
        k(  356) = (  -0.3750000  -0.2500000  -0.5000000), wk =   0.0043384
        k(  357) = (  -0.3666667  -0.2666667  -0.5000000), wk =   0.0043384
        k(  358) = (  -0.3583333  -0.2833333  -0.5000000), wk =   0.0043384
        k(  359) = (  -0.3500000  -0.3000000  -0.5000000), wk =   0.0043384
        k(  360) = (  -0.3416667  -0.3166667  -0.5000000), wk =   0.0043384
        k(  361) = (  -0.3333333  -0.3333333  -0.5000000), wk =   0.0043384
        k(  362) = (  -0.3166667  -0.3166667  -0.5000000), wk =   0.0043384
        k(  363) = (  -0.3000000  -0.3000000  -0.5000000), wk =   0.0043384
        k(  364) = (  -0.2833333  -0.2833333  -0.5000000), wk =   0.0043384
        k(  365) = (  -0.2666667  -0.2666667  -0.5000000), wk =   0.0043384
        k(  366) = (  -0.2500000  -0.2500000  -0.5000000), wk =   0.0043384
        k(  367) = (  -0.2333333  -0.2333333  -0.5000000), wk =   0.0043384
        k(  368) = (  -0.2166667  -0.2166667  -0.5000000), wk =   0.0043384
        k(  369) = (  -0.2000000  -0.2000000  -0.5000000), wk =   0.0043384
        k(  370) = (  -0.1833333  -0.1833333  -0.5000000), wk =   0.0043384
        k(  371) = (  -0.1666667  -0.1666667  -0.5000000), wk =   0.0043384
        k(  372) = (  -0.1500000  -0.1500000  -0.5000000), wk =   0.0043384
        k(  373) = (  -0.1333333  -0.1333333  -0.5000000), wk =   0.0043384
        k(  374) = (  -0.1166667  -0.1166667  -0.5000000), wk =   0.0043384
        k(  375) = (  -0.1000000  -0.1000000  -0.5000000), wk =   0.0043384
        k(  376) = (  -0.0833333  -0.0833333  -0.5000000), wk =   0.0043384
        k(  377) = (  -0.0666667  -0.0666667  -0.5000000), wk =   0.0043384
        k(  378) = (  -0.0500000  -0.0500000  -0.5000000), wk =   0.0043384
        k(  379) = (  -0.0333333  -0.0333333  -0.5000000), wk =   0.0043384
        k(  380) = (  -0.0166667  -0.0166667  -0.5000000), wk =   0.0043384
        k(  381) = (   0.0000000   0.0000000  -0.5000000), wk =   0.0043384
        k(  382) = (  -0.0250000   0.0000000  -0.5000000), wk =   0.0043384
        k(  383) = (  -0.0500000   0.0000000  -0.5000000), wk =   0.0043384
        k(  384) = (  -0.0750000   0.0000000  -0.5000000), wk =   0.0043384
        k(  385) = (  -0.1000000   0.0000000  -0.5000000), wk =   0.0043384
        k(  386) = (  -0.1250000   0.0000000  -0.5000000), wk =   0.0043384
        k(  387) = (  -0.1500000   0.0000000  -0.5000000), wk =   0.0043384
        k(  388) = (  -0.1750000   0.0000000  -0.5000000), wk =   0.0043384
        k(  389) = (  -0.2000000   0.0000000  -0.5000000), wk =   0.0043384
        k(  390) = (  -0.2250000   0.0000000  -0.5000000), wk =   0.0043384
        k(  391) = (  -0.2500000   0.0000000  -0.5000000), wk =   0.0043384
        k(  392) = (  -0.2750000   0.0000000  -0.5000000), wk =   0.0043384
        k(  393) = (  -0.3000000   0.0000000  -0.5000000), wk =   0.0043384
        k(  394) = (  -0.3250000   0.0000000  -0.5000000), wk =   0.0043384
        k(  395) = (  -0.3500000   0.0000000  -0.5000000), wk =   0.0043384
        k(  396) = (  -0.3750000   0.0000000  -0.5000000), wk =   0.0043384
        k(  397) = (  -0.4000000   0.0000000  -0.5000000), wk =   0.0043384
        k(  398) = (  -0.4250000   0.0000000  -0.5000000), wk =   0.0043384
        k(  399) = (  -0.4500000   0.0000000  -0.5000000), wk =   0.0043384
        k(  400) = (  -0.4750000   0.0000000  -0.5000000), wk =   0.0043384
        k(  401) = (  -0.5000000   0.0000000  -0.5000000), wk =   0.0043384
        k(  402) = (  -0.5000000   0.0000000  -0.4750000), wk =   0.0043384
        k(  403) = (  -0.5000000   0.0000000  -0.4500000), wk =   0.0043384
        k(  404) = (  -0.5000000   0.0000000  -0.4250000), wk =   0.0043384
        k(  405) = (  -0.5000000   0.0000000  -0.4000000), wk =   0.0043384
        k(  406) = (  -0.5000000   0.0000000  -0.3750000), wk =   0.0043384
        k(  407) = (  -0.5000000   0.0000000  -0.3500000), wk =   0.0043384
        k(  408) = (  -0.5000000   0.0000000  -0.3250000), wk =   0.0043384
        k(  409) = (  -0.5000000   0.0000000  -0.3000000), wk =   0.0043384
        k(  410) = (  -0.5000000   0.0000000  -0.2750000), wk =   0.0043384
        k(  411) = (  -0.5000000   0.0000000  -0.2500000), wk =   0.0043384
        k(  412) = (  -0.5000000   0.0000000  -0.2250000), wk =   0.0043384
        k(  413) = (  -0.5000000   0.0000000  -0.2000000), wk =   0.0043384
        k(  414) = (  -0.5000000   0.0000000  -0.1750000), wk =   0.0043384
        k(  415) = (  -0.5000000   0.0000000  -0.1500000), wk =   0.0043384
        k(  416) = (  -0.5000000   0.0000000  -0.1250000), wk =   0.0043384
        k(  417) = (  -0.5000000   0.0000000  -0.1000000), wk =   0.0043384
        k(  418) = (  -0.5000000   0.0000000  -0.0750000), wk =   0.0043384
        k(  419) = (  -0.5000000   0.0000000  -0.0500000), wk =   0.0043384
        k(  420) = (  -0.5000000   0.0000000  -0.0250000), wk =   0.0043384
        k(  421) = (  -0.5000000   0.0000000   0.0000000), wk =   0.0043384
        k(  422) = (  -0.4916667  -0.0166667  -0.0250000), wk =   0.0043384
        k(  423) = (  -0.4833333  -0.0333333  -0.0500000), wk =   0.0043384
        k(  424) = (  -0.4750000  -0.0500000  -0.0750000), wk =   0.0043384
        k(  425) = (  -0.4666667  -0.0666667  -0.1000000), wk =   0.0043384
        k(  426) = (  -0.4583333  -0.0833333  -0.1250000), wk =   0.0043384
        k(  427) = (  -0.4500000  -0.1000000  -0.1500000), wk =   0.0043384
        k(  428) = (  -0.4416667  -0.1166667  -0.1750000), wk =   0.0043384
        k(  429) = (  -0.4333333  -0.1333333  -0.2000000), wk =   0.0043384
        k(  430) = (  -0.4250000  -0.1500000  -0.2250000), wk =   0.0043384
        k(  431) = (  -0.4166667  -0.1666667  -0.2500000), wk =   0.0043384
        k(  432) = (  -0.4083333  -0.1833333  -0.2750000), wk =   0.0043384
        k(  433) = (  -0.4000000  -0.2000000  -0.3000000), wk =   0.0043384
        k(  434) = (  -0.3916667  -0.2166667  -0.3250000), wk =   0.0043384
        k(  435) = (  -0.3833333  -0.2333333  -0.3500000), wk =   0.0043384
        k(  436) = (  -0.3750000  -0.2500000  -0.3750000), wk =   0.0043384
        k(  437) = (  -0.3666667  -0.2666667  -0.4000000), wk =   0.0043384
        k(  438) = (  -0.3583333  -0.2833333  -0.4250000), wk =   0.0043384
        k(  439) = (  -0.3500000  -0.3000000  -0.4500000), wk =   0.0043384
        k(  440) = (  -0.3416667  -0.3166667  -0.4750000), wk =   0.0043384
        k(  441) = (  -0.3333333  -0.3333333  -0.5000000), wk =   0.0043384
        k(  442) = (  -0.3333333  -0.3333333  -0.4750000), wk =   0.0043384
        k(  443) = (  -0.3333333  -0.3333333  -0.4500000), wk =   0.0043384
        k(  444) = (  -0.3333333  -0.3333333  -0.4250000), wk =   0.0043384
        k(  445) = (  -0.3333333  -0.3333333  -0.4000000), wk =   0.0043384
        k(  446) = (  -0.3333333  -0.3333333  -0.3750000), wk =   0.0043384
        k(  447) = (  -0.3333333  -0.3333333  -0.3500000), wk =   0.0043384
        k(  448) = (  -0.3333333  -0.3333333  -0.3250000), wk =   0.0043384
        k(  449) = (  -0.3333333  -0.3333333  -0.3000000), wk =   0.0043384
        k(  450) = (  -0.3333333  -0.3333333  -0.2750000), wk =   0.0043384
        k(  451) = (  -0.3333333  -0.3333333  -0.2500000), wk =   0.0043384
        k(  452) = (  -0.3333333  -0.3333333  -0.2250000), wk =   0.0043384
        k(  453) = (  -0.3333333  -0.3333333  -0.2000000), wk =   0.0043384
[...]

   -60.1388 -34.3084 -34.1542 -34.1260 -13.3412 -12.0404  -4.8755  -2.4265
    -1.9575  -1.7734  -1.1948  -0.4710   0.6229   3.2146   3.3318   3.5322
     3.6464

          k =-0.1250-0.0722-0.1072 (  3096 PWs)   bands (ev):

   -60.1370 -34.3046 -34.1736 -34.1304 -13.2609 -12.0094  -4.7921  -2.5767
    -1.9724  -1.8734  -1.3058  -0.4130   0.5570   3.1785   3.1928   3.4503
     3.7707

          k =-0.1500-0.0866-0.1072 (  3102 PWs)   bands (ev):

   -60.1348 -34.3001 -34.1962 -34.1356 -13.1651 -11.9724  -4.6997  -2.7379
    -2.1725  -1.7739  -1.4281  -0.3946   0.4668   3.0687   3.1752   3.3607
     3.9062

          k =-0.1750-0.1010-0.1072 (  3118 PWs)   bands (ev):

   -60.1323 -34.2951 -34.2214 -34.1414 -13.0555 -11.9301  -4.6060  -2.8991
    -2.3728  -1.6611  -1.5571  -0.4141   0.3520   2.9709   3.2116   3.2680
     4.0464

          k =-0.2000-0.1155-0.1072 (  3112 PWs)   bands (ev):

   -60.1296 -34.2896 -34.2487 -34.1476 -12.9337 -11.8832  -4.5224  -3.0477
    -2.5726  -1.6883  -1.5375  -0.4655   0.2170   2.9055   3.1764   3.2872
     4.1861

          k =-0.2250-0.1299-0.1072 (  3104 PWs)   bands (ev):

   -60.1268 -34.2838 -34.2772 -34.1542 -12.8018 -11.8326  -4.4640  -3.1697
    -2.7710  -1.8184  -1.4059  -0.5398   0.0710   2.8732   3.0898   3.3965
     4.3204

          k =-0.2500-0.1443-0.1072 (  3096 PWs)   bands (ev):

   -60.1239 -34.3063 -34.2779 -34.1609 -12.6623 -11.7794  -4.4470  -3.2522
    -2.9663  -1.9444  -1.2696  -0.6271  -0.0726   2.8709   3.0114   3.5308
     4.4460

          k =-0.2750-0.1588-0.1072 (  3090 PWs)   bands (ev):

   -60.1210 -34.3353 -34.2720 -34.1676 -12.5179 -11.7246  -4.4796  -3.2927
    -3.1567  -2.0638  -1.1324  -0.7188  -0.1984   2.8937   2.9440   3.6802
     4.5602

          k =-0.3000-0.1732-0.1072 (  3088 PWs)   bands (ev):

   -60.1181 -34.3635 -34.2663 -34.1741 -12.3719 -11.6695  -4.5553  -3.3396
    -3.3038  -2.1749  -0.9981  -0.8082  -0.2918   2.8895   2.9358   3.8350
     4.6615

          k =-0.3250-0.1876-0.1072 (  3088 PWs)   bands (ev):

   -60.1154 -34.3901 -34.2608 -34.1803 -12.2277 -11.6156  -4.6579  -3.5120
    -3.3064  -2.2759  -0.8906  -0.8707  -0.3420   2.8490   2.9918   3.9863
     4.7492

          k =-0.3500-0.2021-0.1072 (  3090 PWs)   bands (ev):

   -60.1130 -34.4146 -34.2557 -34.1861 -12.0893 -11.5645  -4.7716  -3.6706
    -3.3166  -2.3656  -0.9633  -0.7538  -0.3452   2.8226   3.0568   4.1263
     4.8232

          k =-0.3750-0.2165-0.1072 (  3090 PWs)   bands (ev):

   -60.1107 -34.4363 -34.2512 -34.1912 -11.9611 -11.5176  -4.8843  -3.8120
    -3.3404  -2.4430  -1.0248  -0.6508  -0.3062   2.8089   3.1263   4.2486
     4.8839

          k =-0.4000-0.2309-0.1072 (  3090 PWs)   bands (ev):

   -60.1088 -34.4548 -34.2473 -34.1955 -11.8476 -11.4765  -4.9873  -3.9329
    -3.3752  -2.5074  -1.0747  -0.5642  -0.2379   2.8054   3.1958   4.3492
     4.9319

          k =-0.4250-0.2454-0.1072 (  3130 PWs)   bands (ev):

   -60.1073 -34.4697 -34.2442 -34.1990 -11.7532 -11.4428  -5.0743  -4.0304
    -3.4138  -2.5580  -1.1129  -0.4957  -0.1576   2.8088   3.2605   4.4261
     4.9682

          k =-0.4500-0.2598-0.1072 (  3108 PWs)   bands (ev):

   -60.1062 -34.4806 -34.2420 -34.2015 -11.6823 -11.4177  -5.1402  -4.1020
    -3.4481  -2.5945  -1.1398  -0.4464  -0.0837   2.8151   3.3142   4.4795
     4.9935

          k =-0.4750-0.2742-0.1072 (  3104 PWs)   bands (ev):

   -60.1055 -34.4872 -34.2406 -34.2031 -11.6382 -11.4021  -5.1813  -4.1458
    -3.4714  -2.6165  -1.1557  -0.4167  -0.0320   2.8207   3.3505   4.5106
     5.0084

          k =-0.5000-0.2887-0.1072 (  3092 PWs)   bands (ev):

   -60.1053 -34.4894 -34.2401 -34.2036 -11.6232 -11.3969  -5.1953  -4.1605
    -3.4797  -2.6238  -1.1610  -0.4068  -0.0135   2.8229   3.3633   4.5207
     5.0133

          k =-0.5000-0.2887-0.1018 (  3098 PWs)   bands (ev):

   -60.1053 -34.4894 -34.2401 -34.2036 -11.6232 -11.3969  -5.1953  -4.1605
    -3.4797  -2.6238  -1.1610  -0.4068  -0.0135   2.8229   3.3633   4.5207
     5.0133

          k =-0.5000-0.2887-0.0965 (  3096 PWs)   bands (ev):

   -60.1053 -34.4894 -34.2401 -34.2036 -11.6232 -11.3969  -5.1953  -4.1605
    -3.4797  -2.6238  -1.1610  -0.4068  -0.0135   2.8229   3.3633   4.5208
     5.0133

          k =-0.5000-0.2887-0.0911 (  3100 PWs)   bands (ev):

   -60.1053 -34.4894 -34.2401 -34.2036 -11.6232 -11.3969  -5.1953  -4.1605
    -3.4797  -2.6238  -1.1610  -0.4068  -0.0135   2.8229   3.3633   4.5207
     5.0133

          k =-0.5000-0.2887-0.0858 (  3106 PWs)   bands (ev):

   -60.1053 -34.4894 -34.2401 -34.2036 -11.6232 -11.3969  -5.1953  -4.1605
    -3.4797  -2.6238  -1.1610  -0.4068  -0.0135   2.8229   3.3633   4.5207
     5.0133

          k =-0.5000-0.2887-0.0804 (  3102 PWs)   bands (ev):

   -60.1053 -34.4894 -34.2401 -34.2036 -11.6232 -11.3969  -5.1953  -4.1605
    -3.4797  -2.6238  -1.1610  -0.4068  -0.0135   2.8229   3.3633   4.5207
     5.0133

          k =-0.5000-0.2887-0.0750 (  3098 PWs)   bands (ev):

   -60.1053 -34.4894 -34.2401 -34.2036 -11.6232 -11.3969  -5.1953  -4.1605
    -3.4797  -2.6238  -1.1610  -0.4068  -0.0135   2.8229   3.3633   4.5207
     5.0133

          k =-0.5000-0.2887-0.0697 (  3094 PWs)   bands (ev):

   -60.1053 -34.4894 -34.2401 -34.2036 -11.6232 -11.3969  -5.1953  -4.1605
    -3.4797  -2.6238  -1.1610  -0.4068  -0.0135   2.8229   3.3633   4.5208
     5.0133

          k =-0.5000-0.2887-0.0643 (  3098 PWs)   bands (ev):

   -60.1053 -34.4894 -34.2401 -34.2036 -11.6232 -11.3969  -5.1953  -4.1605
    -3.4797  -2.6238  -1.1610  -0.4068  -0.0135   2.8229   3.3633   4.5208
     5.0133

          k =-0.5000-0.2887-0.0590 (  3098 PWs)   bands (ev):

   -60.1053 -34.4894 -34.2401 -34.2036 -11.6232 -11.3969  -5.1953  -4.1605
    -3.4797  -2.6238  -1.1610  -0.4068  -0.0135   2.8229   3.3633   4.5208
     5.0133

          k =-0.5000-0.2887-0.0536 (  3090 PWs)   bands (ev):

   -60.1053 -34.4894 -34.2401 -34.2036 -11.6232 -11.3969  -5.1953  -4.1605
    -3.4797  -2.6238  -1.1610  -0.4068  -0.0135   2.8229   3.3633   4.5208
     5.0133

          k =-0.5000-0.2887-0.0482 (  3090 PWs)   bands (ev):

   -60.1053 -34.4894 -34.2401 -34.2036 -11.6232 -11.3969  -5.1953  -4.1605
    -3.4797  -2.6238  -1.1610  -0.4068  -0.0135   2.8229   3.3633   4.5208
     5.0133

          k =-0.5000-0.2887-0.0429 (  3086 PWs)   bands (ev):

   -60.1053 -34.4894 -34.2401 -34.2036 -11.6232 -11.3969  -5.1953  -4.1605
    -3.4797  -2.6238  -1.1610  -0.4068  -0.0135   2.8229   3.3633   4.5208
     5.0133

          k =-0.5000-0.2887-0.0375 (  3082 PWs)   bands (ev):

   -60.1053 -34.4894 -34.2401 -34.2036 -11.6232 -11.3969  -5.1953  -4.1605
    -3.4797  -2.6238  -1.1610  -0.4068  -0.0135   2.8229   3.3633   4.5208
     5.0133

          k =-0.5000-0.2887-0.0322 (  3086 PWs)   bands (ev):

   -60.1053 -34.4894 -34.2401 -34.2036 -11.6232 -11.3969  -5.1953  -4.1605
    -3.4797  -2.6238  -1.1610  -0.4068  -0.0135   2.8229   3.3633   4.5208
     5.0133

          k =-0.5000-0.2887-0.0268 (  3086 PWs)   bands (ev):

   -60.1053 -34.4894 -34.2401 -34.2036 -11.6232 -11.3969  -5.1953  -4.1605
    -3.4797  -2.6238  -1.1610  -0.4068  -0.0135   2.8229   3.3633   4.5208
     5.0133

          k =-0.5000-0.2887-0.0214 (  3090 PWs)   bands (ev):

   -60.1053 -34.4894 -34.2401 -34.2036 -11.6232 -11.3969  -5.1953  -4.1605
    -3.4797  -2.6238  -1.1610  -0.4068  -0.0135   2.8229   3.3633   4.5208
     5.0133

          k =-0.5000-0.2887-0.0161 (  3094 PWs)   bands (ev):

   -60.1053 -34.4894 -34.2401 -34.2036 -11.6232 -11.3969  -5.1953  -4.1605
    -3.4797  -2.6238  -1.1610  -0.4068  -0.0135   2.8229   3.3633   4.5208
     5.0133

          k =-0.5000-0.2887-0.0107 (  3096 PWs)   bands (ev):

   -60.1053 -34.4894 -34.2401 -34.2036 -11.6232 -11.3969  -5.1953  -4.1605
    -3.4797  -2.6238  -1.1610  -0.4068  -0.0135   2.8229   3.3633   4.5208
     5.0133

          k =-0.5000-0.2887-0.0054 (  3092 PWs)   bands (ev):

   -60.1053 -34.4894 -34.2401 -34.2036 -11.6232 -11.3969  -5.1953  -4.1605
    -3.4797  -2.6238  -1.1610  -0.4068  -0.0135   2.8229   3.3633   4.5208
     5.0133

          k =-0.5000-0.2887 0.0000 (  3092 PWs)   bands (ev):

   -60.1053 -34.4894 -34.2401 -34.2036 -11.6232 -11.3969  -5.1953  -4.1605
    -3.4797  -2.6238  -1.1610  -0.4068  -0.0135   2.8229   3.3633   4.5208
     5.0133

          k =-0.4917-0.3031-0.0054 (  3094 PWs)   bands (ev):

   -60.1053 -34.4891 -34.2400 -34.2043 -11.6219 -11.3960  -5.1911  -4.1646
    -3.4782  -2.6235  -1.1602  -0.4346  -0.0002   2.8250   3.3644   4.5262
     5.0003

          k =-0.4833-0.3175-0.0107 (  3087 PWs)   bands (ev):

   -60.1052 -34.4881 -34.2399 -34.2062 -11.6178 -11.3935  -5.1787  -4.1767
    -3.4740  -2.6224  -1.1579  -0.5089   0.0314   2.8307   3.3679   4.5420
     4.9628

          k =-0.4750-0.3320-0.0161 (  3090 PWs)   bands (ev):

   -60.1051 -34.4866 -34.2396 -34.2094 -11.6110 -11.3894  -5.1581  -4.1967
    -3.4671  -2.6202  -1.1547  -0.6149   0.0681   2.8381   3.3751   4.5663
     4.9057

          k =-0.4667-0.3464-0.0214 (  3097 PWs)   bands (ev):

   -60.1049 -34.4844 -34.2393 -34.2138 -11.6017 -11.3836  -5.1294  -4.2242
    -3.4577  -2.6162  -1.1513  -0.7432   0.1033   2.8443   3.3881   4.5933
     4.8390

          k =-0.4583-0.3608-0.0268 (  3101 PWs)   bands (ev):

   -60.1047 -34.4816 -34.2389 -34.2194 -11.5900 -11.3765  -5.0928  -4.2584
    -3.4459  -2.6098  -1.1487  -0.8885   0.1349   2.8457   3.4091   4.6028
     4.7870

          k =-0.4500-0.3753-0.0322 (  3104 PWs)   bands (ev):

   -60.1044 -34.4782 -34.2383 -34.2261 -11.5761 -11.3680  -5.0485  -4.2988
    -3.4322  -2.6003  -1.1479  -1.0470   0.1629   2.8391   3.4400   4.5580
     4.7904

          k =-0.4417-0.3897-0.0375 (  3105 PWs)   bands (ev):

   -60.1041 -34.4743 -34.2378 -34.2338 -11.5602 -11.3583  -4.9967  -4.3442
    -3.4168  -2.5872  -1.2159  -1.1499   0.1887   2.8224   3.4817   4.4733
     4.8376

          k =-0.4333-0.4041-0.0429 (  3104 PWs)   bands (ev):

   -60.1038 -34.4698 -34.2424 -34.2371 -11.5427 -11.3478  -4.9377  -4.3937
    -3.4001  -2.5703  -1.3926  -1.1556   0.2134   2.7949   3.5337   4.3771
     4.9022

          k =-0.4250-0.4186-0.0482 (  3097 PWs)   bands (ev):

   -60.1035 -34.4648 -34.2517 -34.2364 -11.5239 -11.3364  -4.8719  -4.4459
    -3.3827  -2.5493  -1.5745  -1.1657   0.2386   2.7573   3.5945   4.2805
     4.9745

          k =-0.4167-0.4330-0.0536 (  3106 PWs)   bands (ev):

   -60.1031 -34.4593 -34.2618 -34.2357 -11.5041 -11.3246  -4.7997  -4.4996
    -3.3652  -2.5242  -1.7593  -1.1806   0.2654   2.7105   3.6619   4.1880
     5.0503

          k =-0.4083-0.4474-0.0590 (  3094 PWs)   bands (ev):

   -60.1028 -34.4533 -34.2724 -34.2350 -11.4838 -11.3125  -4.7215  -4.5534
    -3.3483  -2.4954  -1.9445  -1.2006   0.2948   2.6563   3.7339   4.1023
     5.1265

          k =-0.4000-0.4619-0.0643 (  3087 PWs)   bands (ev):

   -60.1024 -34.4469 -34.2833 -34.2343 -11.4634 -11.3005  -4.6379  -4.6061
    -3.3330  -2.4632  -2.1274  -1.2257   0.3272   2.5964   3.8082   4.0251
     5.2008

          k =-0.3917-0.4763-0.0697 (  3077 PWs)   bands (ev):

   -60.1021 -34.4402 -34.2945 -34.2336 -11.4433 -11.2888  -4.6563  -4.5496
    -3.3206  -2.4284  -2.3050  -1.2552   0.3629   2.5327   3.8826   3.9575
     5.2709

          k =-0.3833-0.4907-0.0750 (  3083 PWs)   bands (ev):

   -60.1017 -34.4332 -34.3057 -34.2329 -11.4241 -11.2777  -4.7029  -4.4573
    -3.3133  -2.4734  -2.3918  -1.2884   0.4011   2.4673   3.9002   3.9550
     5.3350

          k =-0.3750-0.5052-0.0804 (  3079 PWs)   bands (ev):

   -60.1014 -34.4260 -34.3168 -34.2323 -11.4064 -11.2676  -4.7447  -4.3624
    -3.3147  -2.6272  -2.3547  -1.3239   0.4409   2.4028   3.8532   4.0232
     5.3912

          k =-0.3667-0.5196-0.0858 (  3078 PWs)   bands (ev):

   -60.1012 -34.4187 -34.3274 -34.2318 -11.3906 -11.2588  -4.7806  -4.2665
    -3.3301  -2.7582  -2.3186  -1.3597   0.4804   2.3421   3.8164   4.0846
     5.4382

          k =-0.3583-0.5340-0.0911 (  3080 PWs)   bands (ev):

   -60.1010 -34.4118 -34.3372 -34.2313 -11.3773 -11.2514  -4.8099  -4.1727
    -3.3651  -2.8572  -2.2857  -1.3933   0.5170   2.2885   3.7894   4.1369
     5.4751

          k =-0.3500-0.5485-0.0965 (  3068 PWs)   bands (ev):

   -60.1008 -34.4055 -34.3455 -34.2310 -11.3671 -11.2459  -4.8316  -4.0868
    -3.4185  -2.9191  -2.2588  -1.4216   0.5474   2.2459   3.7715   4.1774
     5.5013

          k =-0.3417-0.5629-0.1018 (  3069 PWs)   bands (ev):

   -60.1007 -34.4009 -34.3514 -34.2308 -11.3606 -11.2424  -4.8451  -4.0207
    -3.4728  -2.9489  -2.2406  -1.4410   0.5680   2.2180   3.7615   4.2034
     5.5168

          k =-0.3333-0.5774-0.1072 (  3072 PWs)   bands (ev):

   -60.1006 -34.3992 -34.3536 -34.2307 -11.3583 -11.2412  -4.8497  -3.9944
    -3.4973  -2.9568  -2.2341  -1.4480   0.5754   2.2081   3.7585   4.2125
     5.5218

          k =-0.3333-0.5774-0.1018 (  3072 PWs)   bands (ev):

   -60.1006 -34.3992 -34.3536 -34.2307 -11.3583 -11.2412  -4.8497  -3.9944
    -3.4973  -2.9568  -2.2341  -1.4480   0.5754   2.2081   3.7585   4.2125
     5.5218

          k =-0.3333-0.5774-0.0965 (  3060 PWs)   bands (ev):

   -60.1006 -34.3992 -34.3536 -34.2307 -11.3583 -11.2412  -4.8497  -3.9944
    -3.4973  -2.9568  -2.2341  -1.4480   0.5754   2.2081   3.7585   4.2125
     5.5218

          k =-0.3333-0.5774-0.0911 (  3063 PWs)   bands (ev):

   -60.1006 -34.3992 -34.3536 -34.2307 -11.3583 -11.2412  -4.8497  -3.9944
    -3.4973  -2.9568  -2.2341  -1.4480   0.5754   2.2081   3.7585   4.2125
     5.5218

          k =-0.3333-0.5774-0.0858 (  3063 PWs)   bands (ev):

   -60.1006 -34.3992 -34.3536 -34.2307 -11.3583 -11.2412  -4.8497  -3.9944
    -3.4973  -2.9568  -2.2341  -1.4480   0.5754   2.2081   3.7585   4.2125
     5.5218

          k =-0.3333-0.5774-0.0804 (  3063 PWs)   bands (ev):

   -60.1006 -34.3992 -34.3536 -34.2307 -11.3583 -11.2412  -4.8497  -3.9944
    -3.4973  -2.9568  -2.2341  -1.4480   0.5754   2.2081   3.7585   4.2125
     5.5218

          k =-0.3333-0.5774-0.0750 (  3066 PWs)   bands (ev):

   -60.1006 -34.3992 -34.3536 -34.2307 -11.3583 -11.2412  -4.8497  -3.9944
    -3.4973  -2.9568  -2.2341  -1.4480   0.5754   2.2081   3.7585   4.2125
     5.5218

          k =-0.3333-0.5774-0.0697 (  3066 PWs)   bands (ev):

   -60.1006 -34.3992 -34.3536 -34.2307 -11.3583 -11.2412  -4.8497  -3.9944
    -3.4973  -2.9568  -2.2341  -1.4480   0.5754   2.2081   3.7585   4.2125
     5.5218

          k =-0.3333-0.5774-0.0643 (  3066 PWs)   bands (ev):

   -60.1006 -34.3992 -34.3536 -34.2307 -11.3583 -11.2412  -4.8497  -3.9944
    -3.4973  -2.9568  -2.2341  -1.4480   0.5754   2.2081   3.7585   4.2125
     5.5218

          k =-0.3333-0.5774-0.0590 (  3075 PWs)   bands (ev):

   -60.1006 -34.3992 -34.3536 -34.2307 -11.3583 -11.2412  -4.8497  -3.9944
    -3.4973  -2.9568  -2.2341  -1.4480   0.5754   2.2081   3.7585   4.2125
     5.5218

          k =-0.3333-0.5774-0.0536 (  3060 PWs)   bands (ev):

   -60.1006 -34.3992 -34.3536 -34.2307 -11.3583 -11.2412  -4.8497  -3.9944
    -3.4973  -2.9568  -2.2341  -1.4480   0.5754   2.2081   3.7585   4.2125
     5.5218

          k =-0.3333-0.5774-0.0482 (  3060 PWs)   bands (ev):

   -60.1006 -34.3992 -34.3536 -34.2307 -11.3583 -11.2412  -4.8497  -3.9944
    -3.4973  -2.9568  -2.2341  -1.4480   0.5754   2.2081   3.7585   4.2125
     5.5218

          k =-0.3333-0.5774-0.0429 (  3060 PWs)   bands (ev):

   -60.1006 -34.3992 -34.3536 -34.2307 -11.3583 -11.2412  -4.8497  -3.9944
    -3.4973  -2.9568  -2.2341  -1.4480   0.5754   2.2081   3.7585   4.2125
     5.5218

          k =-0.3333-0.5774-0.0375 (  3060 PWs)   bands (ev):

   -60.1006 -34.3992 -34.3536 -34.2307 -11.3583 -11.2412  -4.8497  -3.9944
    -3.4973  -2.9568  -2.2341  -1.4480   0.5754   2.2081   3.7585   4.2125
     5.5218

          k =-0.3333-0.5774-0.0322 (  3066 PWs)   bands (ev):

   -60.1006 -34.3992 -34.3536 -34.2307 -11.3583 -11.2412  -4.8497  -3.9944
    -3.4973  -2.9568  -2.2341  -1.4480   0.5754   2.2081   3.7585   4.2125
     5.5218

          k =-0.3333-0.5774-0.0268 (  3066 PWs)   bands (ev):

   -60.1006 -34.3992 -34.3536 -34.2307 -11.3583 -11.2412  -4.8497  -3.9944
    -3.4973  -2.9568  -2.2341  -1.4480   0.5754   2.2081   3.7585   4.2125
     5.5218

          k =-0.3333-0.5774-0.0214 (  3060 PWs)   bands (ev):

   -60.1006 -34.3992 -34.3536 -34.2307 -11.3583 -11.2412  -4.8496  -3.9944
    -3.4973  -2.9568  -2.2341  -1.4480   0.5754   2.2081   3.7585   4.2125
     5.5218

          k =-0.3333-0.5774-0.0161 (  3066 PWs)   bands (ev):

   -60.1006 -34.3992 -34.3536 -34.2307 -11.3583 -11.2412  -4.8497  -3.9944
    -3.4973  -2.9568  -2.2341  -1.4480   0.5754   2.2081   3.7585   4.2125
     5.5218

          k =-0.3333-0.5774-0.0107 (  3078 PWs)   bands (ev):

   -60.1006 -34.3992 -34.3536 -34.2307 -11.3583 -11.2412  -4.8497  -3.9944
    -3.4973  -2.9568  -2.2341  -1.4480   0.5754   2.2081   3.7585   4.2125
     5.5218

          k =-0.3333-0.5774-0.0054 (  3084 PWs)   bands (ev):

   -60.1006 -34.3992 -34.3536 -34.2307 -11.3583 -11.2412  -4.8497  -3.9944
    -3.4973  -2.9568  -2.2341  -1.4480   0.5754   2.2081   3.7585   4.2125
     5.5218

          k =-0.3333-0.5774 0.0000 (  3078 PWs)   bands (ev):

   -60.1006 -34.3992 -34.3536 -34.2307 -11.3583 -11.2412  -4.8497  -3.9944
    -3.4973  -2.9568  -2.2341  -1.4480   0.5754   2.2081   3.7585   4.2125
     5.5218

     Writing all to output data dir ./out/aiida.save/ :
     XML data file, pseudopotentials, collected wavefunctions

     init_run     :      1.19s CPU      1.14s WALL (       1 calls)
     electrons    :   1497.58s CPU    514.35s WALL (       1 calls)

     Called by init_run:
     wfcinit      :      0.00s CPU      0.00s WALL (       1 calls)
     wfcinit:atom :      1.32s CPU      0.53s WALL (     461 calls)
     wfcinit:wfcr :     48.29s CPU     17.44s WALL (     461 calls)
     potinit      :      0.33s CPU      0.34s WALL (       1 calls)
     hinit0       :      0.50s CPU      0.51s WALL (       1 calls)

     Called by electrons:
     c_bands      :   1497.56s CPU    514.34s WALL (       1 calls)
     v_of_rho     :      0.04s CPU      0.05s WALL (       1 calls)
     v_h          :      0.00s CPU      0.00s WALL (       1 calls)
     v_xc         :      0.04s CPU      0.05s WALL (       1 calls)
     newd         :      0.24s CPU      0.18s WALL (       1 calls)

     Called by c_bands:
     init_us_2    :      2.35s CPU      0.96s WALL (     461 calls)
     cegterg      :   1426.61s CPU    488.20s WALL (     922 calls)

     Called by sum_band:

     Called by *egterg:
     cdiaghg      :     34.15s CPU     10.41s WALL (   15583 calls)
     cegterg:over :     63.26s CPU      8.26s WALL (   15122 calls)
     cegterg:upda :     29.04s CPU      4.50s WALL (   15122 calls)
     cegterg:last :     50.72s CPU      8.10s WALL (   12697 calls)
     h_psi        :   1242.12s CPU    463.00s WALL (   16505 calls)
     s_psi        :     15.10s CPU      2.93s WALL (   16505 calls)
     g_psi        :     19.72s CPU      3.99s WALL (   15122 calls)

     Called by h_psi:
     h_psi:calbec :     33.68s CPU      7.25s WALL (   16505 calls)
     vloc_psi     :   1187.75s CPU    450.63s WALL (   16505 calls)
     add_vuspsi   :     14.74s CPU      3.54s WALL (   16505 calls)

     General routines
     calbec       :     33.51s CPU      7.20s WALL (   16505 calls)
     fft          :      0.34s CPU      0.34s WALL (      13 calls)
     ffts         :      0.29s CPU      0.29s WALL (       1 calls)
     fftw         :    969.16s CPU    378.45s WALL (  464118 calls)
     interpolate  :      0.29s CPU      0.29s WALL (       1 calls)
     davcio       :      1.08s CPU      0.35s WALL (     922 calls)

     Parallel routines

     PWSCF        :  24m59.30s CPU   8m36.09s WALL


   This run was terminated on:  21:54:50  12Dec2024            

=------------------------------------------------------------------------------=
   JOB DONE.
=------------------------------------------------------------------------------=
