
     Program PWSCF v.7.3.1 starts on 12Dec2024 at 13:43:48 

     This program is part of the open-source Quantum ESPRESSO suite
     for quantum simulation of materials; please cite
         "P. Giannozzi et al., J. Phys.:Condens. Matter 21 395502 (2009);
         "P. Giannozzi et al., J. Phys.:Condens. Matter 29 465901 (2017);
         "P. Giannozzi et al., J. Chem. Phys. 152 154105 (2020);
          URL http://www.quantum-espresso.org", 
     in publications or presentations arising from this work. More details at
     http://www.quantum-espresso.org/quote

     Parallel version (MPI), running on     1 processors

     MPI processes distributed on     1 nodes
     24713 MiB available memory on the printing compute node when the environment starts

     Waiting for input...
     Reading input from standard input

     Current dimensions of program PWSCF are:
     Max number of different atomic species (ntypx) = 10
     Max number of k-points (npk) =  40000
     Max angular momentum in pseudopotentials (lmaxx) =  4

     Atomic positions and unit cell read from directory:
     ./out/aiida.save/

     Message from routine setup:
     using ibrav=0 with symmetry is DISCOURAGED, use correct ibrav instead

     Subspace diagonalization in iterative solution of the eigenvalue problem:
     a serial algorithm will be used


     G-vector sticks info
     --------------------
     sticks:   dense  smooth     PW     G-vecs:    dense   smooth      PW
     Sum         703     349    109                69899    24741    4271

     Using Slab Decomposition



     bravais-lattice index     =            0
     lattice parameter (alat)  =       6.0288  a.u.
     unit-cell volume          =     885.0514 (a.u.)^3
     number of atoms/cell      =            3
     number of atomic types    =            2
     number of electrons       =        26.00
     number of Kohn-Sham states=           17
     kinetic-energy cutoff     =      35.0000  Ry
     charge density cutoff     =     280.0000  Ry
     Exchange-correlation= SLA  PW   PSX  PSC
                           (   1   4  10   8   0   0   0)

     celldm(1)=   6.028823  celldm(2)=   0.000000  celldm(3)=   0.000000
     celldm(4)=   0.000000  celldm(5)=   0.000000  celldm(6)=   0.000000

     crystal axes: (cart. coord. in units of alat)
               a(1) = (   1.000000   0.000000   0.000000 )  
               a(2) = (  -0.500000   0.866025   0.000000 )  
               a(3) = (   0.000000   0.000000   4.663803 )  

     reciprocal axes: (cart. coord. in units 2 pi/alat)
               b(1) = (  1.000000  0.577350 -0.000000 )  
               b(2) = (  0.000000  1.154701  0.000000 )  
               b(3) = (  0.000000 -0.000000  0.214417 )  


     PseudoPot. # 1 for Mo read from file:
     ./Mo_ONCV_PBEsol-1.0.upf
     MD5 check sum: 5193ba6a20874d27c2ef80314d1b3445
     Pseudo is Norm-conserving, Zval = 14.0
     Generated using ONCVPSP code by D. R. Hamann
     Using radial grid of 1508 points,  6 beta functions with: 
                l(1) =   0
                l(2) =   0
                l(3) =   1
                l(4) =   1
                l(5) =   2
                l(6) =   2

     PseudoPot. # 2 for S  read from file:
     ./s_pbesol_v1.4.uspp.F.UPF
     MD5 check sum: 0ccfa86ec6eb59065d10aaae963ef2a7
     Pseudo is Ultrasoft + core correction, Zval =  6.0
     Generated by new atomic code, or converted to UPF format
     Using radial grid of  907 points,  6 beta functions with: 
                l(1) =   0
                l(2) =   0
                l(3) =   1
                l(4) =   1
                l(5) =   2
                l(6) =   2
     Q(r) pseudized with  8 coefficients,  rinner =    1.300   1.300   1.300
                                                       1.300   1.300

     atomic species   valence    mass     pseudopotential
     Mo               14.00    95.96000     Mo( 1.00)
     S                 6.00    32.06500     S ( 1.00)

     12 Sym. Ops. (no inversion) found ( 6 have fractional translation)


                                    s                        frac. trans.

      isym =  1     identity                                     

 cryst.   s( 1) = (     1          0          0      )
                  (     0          1          0      )
                  (     0          0          1      )

 cart.    s( 1) = (  1.0000000  0.0000000  0.0000000 )
                  (  0.0000000  1.0000000  0.0000000 )
                  (  0.0000000  0.0000000  1.0000000 )


      isym =  2     180 deg rotation - cart. axis [0,1,0]        

 cryst.   s( 2) = (    -1          0          0      )    f =( -0.0000010 )
                  (     1          1          0      )       (  0.0000000 )
                  (     0          0         -1      )       (  0.5000000 )

 cart.    s( 2) = ( -1.0000000  0.0000000  0.0000000 )    f =( -0.0000010 )
                  (  0.0000000  1.0000000  0.0000000 )       (  0.0000000 )
                  (  0.0000000  0.0000000 -1.0000000 )       (  2.3319013 )


      isym =  3     120 deg rotation - cryst. axis [0,0,1]       

 cryst.   s( 3) = (     0          1          0      )
                  (    -1         -1          0      )
                  (     0          0          1      )

 cart.    s( 3) = ( -0.5000000 -0.8660254  0.0000000 )
                  (  0.8660254 -0.5000000  0.0000000 )
                  (  0.0000000  0.0000000  1.0000000 )


      isym =  4     120 deg rotation - cryst. axis [0,0,-1]      

 cryst.   s( 4) = (    -1         -1          0      )
                  (     1          0          0      )
                  (     0          0          1      )

 cart.    s( 4) = ( -0.5000000  0.8660254  0.0000000 )
                  ( -0.8660254 -0.5000000  0.0000000 )
                  (  0.0000000  0.0000000  1.0000000 )


      isym =  5     180 deg rotation - cryst. axis [1,-1,0]      

 cryst.   s( 5) = (     0         -1          0      )    f =(  0.0000000 )
                  (    -1          0          0      )       (  0.0000000 )
                  (     0          0         -1      )       (  0.5000000 )

 cart.    s( 5) = (  0.5000000 -0.8660254  0.0000000 )    f =(  0.0000000 )
                  ( -0.8660254 -0.5000000  0.0000000 )       (  0.0000000 )
                  (  0.0000000  0.0000000 -1.0000000 )       (  2.3319013 )


      isym =  6     180 deg rotation - cryst. axis [2,1,0]       

 cryst.   s( 6) = (     1          1          0      )    f =(  0.0000000 )
                  (     0         -1          0      )       (  0.0000010 )
                  (     0          0         -1      )       (  0.5000000 )

 cart.    s( 6) = (  0.5000000  0.8660254  0.0000000 )    f =( -0.0000005 )
                  (  0.8660254 -0.5000000  0.0000000 )       (  0.0000009 )
                  (  0.0000000  0.0000000 -1.0000000 )       (  2.3319013 )


      isym =  7     inv. 180 deg rotation - cart. axis [0,0,1]   

 cryst.   s( 7) = (     1          0          0      )    f =(  0.0000000 )
                  (     0          1          0      )       (  0.0000000 )
                  (     0          0         -1      )       (  0.5000000 )

 cart.    s( 7) = (  1.0000000  0.0000000  0.0000000 )    f =(  0.0000000 )
                  (  0.0000000  1.0000000  0.0000000 )       (  0.0000000 )
                  (  0.0000000  0.0000000 -1.0000000 )       (  2.3319013 )


      isym =  8     inv. 180 deg rotation - cart. axis [1,0,0]   

 cryst.   s( 8) = (    -1          0          0      )
                  (     1          1          0      )
                  (     0          0          1      )

 cart.    s( 8) = ( -1.0000000  0.0000000  0.0000000 )
                  (  0.0000000  1.0000000  0.0000000 )
                  (  0.0000000  0.0000000  1.0000000 )


      isym =  9     inv.  60 deg rotation - cryst. axis [0,0,1]  

 cryst.   s( 9) = (    -1         -1          0      )    f =( -0.0000010 )
                  (     1          0          0      )       (  0.0000000 )
                  (     0          0         -1      )       (  0.5000000 )

 cart.    s( 9) = ( -0.5000000  0.8660254  0.0000000 )    f =( -0.0000010 )
                  ( -0.8660254 -0.5000000  0.0000000 )       (  0.0000000 )
                  (  0.0000000  0.0000000 -1.0000000 )       (  2.3319013 )


      isym = 10     inv.  60 deg rotation - cryst. axis [0,0,-1] 

 cryst.   s(10) = (     0          1          0      )    f =(  0.0000000 )
                  (    -1         -1          0      )       (  0.0000010 )
                  (     0          0         -1      )       (  0.5000000 )

 cart.    s(10) = ( -0.5000000 -0.8660254  0.0000000 )    f =( -0.0000005 )
                  (  0.8660254 -0.5000000  0.0000000 )       (  0.0000009 )
                  (  0.0000000  0.0000000 -1.0000000 )       (  2.3319013 )


      isym = 11     inv. 180 deg rotation - cryst. axis [0,1,0]  

 cryst.   s(11) = (     1          1          0      )
                  (     0         -1          0      )
                  (     0          0          1      )

 cart.    s(11) = (  0.5000000  0.8660254  0.0000000 )
                  (  0.8660254 -0.5000000  0.0000000 )
                  (  0.0000000  0.0000000  1.0000000 )


      isym = 12     inv. 180 deg rotation - cryst. axis [1,1,0]  

 cryst.   s(12) = (     0         -1          0      )
                  (    -1          0          0      )
                  (     0          0          1      )

 cart.    s(12) = (  0.5000000 -0.8660254  0.0000000 )
                  ( -0.8660254 -0.5000000  0.0000000 )
                  (  0.0000000  0.0000000  1.0000000 )


   Cartesian axes

     site n.     atom                  positions (alat units)
         1        Mo     tau(   1) = (   0.5000005   0.2886748   3.4978519  )
         2        S      tau(   2) = (  -0.0000005   0.5773506   3.0146135  )
         3        S      tau(   3) = (  -0.0000005   0.5773506   3.9810904  )

   Crystallographic axes

     site n.     atom                  positions (cryst. coord.)
         1        Mo     tau(   1) = (  0.6666670  0.3333330  0.7500000  )
         2        S      tau(   2) = (  0.3333330  0.6666670  0.6463853  )
         3        S      tau(   3) = (  0.3333330  0.6666670  0.8536147  )

     number of k points=    60  Marzari-Vanderbilt smearing, width (Ry)=  0.0200
                       cart. coord. in units 2pi/alat
        k(    1) = (   0.0000000   0.0000000   0.0000000), wk =   0.0026042
        k(    2) = (   0.0000000   0.0000000   0.0714724), wk =   0.0052083
        k(    3) = (   0.0000000   0.0721688   0.0000000), wk =   0.0156250
        k(    4) = (   0.0000000   0.0721688   0.0714724), wk =   0.0312500
        k(    5) = (   0.0000000   0.1443376   0.0000000), wk =   0.0156250
        k(    6) = (   0.0000000   0.1443376   0.0714724), wk =   0.0312500
        k(    7) = (   0.0000000   0.2165064   0.0000000), wk =   0.0156250
        k(    8) = (   0.0000000   0.2165064   0.0714724), wk =   0.0312500
        k(    9) = (   0.0000000   0.2886751   0.0000000), wk =   0.0156250
        k(   10) = (   0.0000000   0.2886751   0.0714724), wk =   0.0312500
        k(   11) = (   0.0000000   0.3608439   0.0000000), wk =   0.0156250
        k(   12) = (   0.0000000   0.3608439   0.0714724), wk =   0.0312500
        k(   13) = (   0.0000000   0.4330127   0.0000000), wk =   0.0156250
        k(   14) = (   0.0000000   0.4330127   0.0714724), wk =   0.0312500
        k(   15) = (   0.0000000   0.5051815   0.0000000), wk =   0.0156250
        k(   16) = (   0.0000000   0.5051815   0.0714724), wk =   0.0312500
        k(   17) = (   0.0000000  -0.5773503   0.0000000), wk =   0.0078125
        k(   18) = (   0.0000000  -0.5773503   0.0714724), wk =   0.0156250
        k(   19) = (   0.0625000   0.1082532   0.0000000), wk =   0.0156250
        k(   20) = (   0.0625000   0.1082532   0.0714724), wk =   0.0312500
        k(   21) = (   0.0625000   0.1804220   0.0000000), wk =   0.0312500
        k(   22) = (   0.0625000   0.1804220   0.0714724), wk =   0.0625000
        k(   23) = (   0.0625000   0.2525907   0.0000000), wk =   0.0312500
        k(   24) = (   0.0625000   0.2525907   0.0714724), wk =   0.0625000
        k(   25) = (   0.0625000   0.3247595   0.0000000), wk =   0.0312500
        k(   26) = (   0.0625000   0.3247595   0.0714724), wk =   0.0625000
        k(   27) = (   0.0625000   0.3969283   0.0000000), wk =   0.0312500
        k(   28) = (   0.0625000   0.3969283   0.0714724), wk =   0.0625000
        k(   29) = (   0.0625000   0.4690971   0.0000000), wk =   0.0312500
        k(   30) = (   0.0625000   0.4690971   0.0714724), wk =   0.0625000
        k(   31) = (   0.0625000   0.5412659   0.0000000), wk =   0.0312500
        k(   32) = (   0.0625000   0.5412659   0.0714724), wk =   0.0625000
        k(   33) = (   0.1250000   0.2165064   0.0000000), wk =   0.0156250
        k(   34) = (   0.1250000   0.2165064   0.0714724), wk =   0.0312500
        k(   35) = (   0.1250000   0.2886751   0.0000000), wk =   0.0312500
        k(   36) = (   0.1250000   0.2886751   0.0714724), wk =   0.0625000
        k(   37) = (   0.1250000   0.3608439   0.0000000), wk =   0.0312500
        k(   38) = (   0.1250000   0.3608439   0.0714724), wk =   0.0625000
        k(   39) = (   0.1250000   0.4330127   0.0000000), wk =   0.0312500
        k(   40) = (   0.1250000   0.4330127   0.0714724), wk =   0.0625000
        k(   41) = (   0.1250000   0.5051815   0.0000000), wk =   0.0312500
        k(   42) = (   0.1250000   0.5051815   0.0714724), wk =   0.0625000
        k(   43) = (   0.1250000   0.5773503   0.0000000), wk =   0.0156250
        k(   44) = (   0.1250000   0.5773503   0.0714724), wk =   0.0312500
        k(   45) = (   0.1875000   0.3247595   0.0000000), wk =   0.0156250
        k(   46) = (   0.1875000   0.3247595   0.0714724), wk =   0.0312500
        k(   47) = (   0.1875000   0.3969283   0.0000000), wk =   0.0312500
        k(   48) = (   0.1875000   0.3969283   0.0714724), wk =   0.0625000
        k(   49) = (   0.1875000   0.4690971   0.0000000), wk =   0.0312500
        k(   50) = (   0.1875000   0.4690971   0.0714724), wk =   0.0625000
        k(   51) = (   0.1875000   0.5412659   0.0000000), wk =   0.0312500
        k(   52) = (   0.1875000   0.5412659   0.0714724), wk =   0.0625000
        k(   53) = (   0.2500000   0.4330127   0.0000000), wk =   0.0156250
        k(   54) = (   0.2500000   0.4330127   0.0714724), wk =   0.0312500
        k(   55) = (   0.2500000   0.5051815   0.0000000), wk =   0.0312500
        k(   56) = (   0.2500000   0.5051815   0.0714724), wk =   0.0625000
        k(   57) = (   0.2500000   0.5773503   0.0000000), wk =   0.0156250
        k(   58) = (   0.2500000   0.5773503   0.0714724), wk =   0.0312500
        k(   59) = (   0.3125000   0.5412659   0.0000000), wk =   0.0156250
        k(   60) = (   0.3125000   0.5412659   0.0714724), wk =   0.0312500

                       cryst. coord.
        k(    1) = (   0.0000000   0.0000000   0.0000000), wk =   0.0026042
        k(    2) = (   0.0000000   0.0000000   0.3333333), wk =   0.0052083
        k(    3) = (   0.0000000   0.0625000   0.0000000), wk =   0.0156250
        k(    4) = (   0.0000000   0.0625000   0.3333333), wk =   0.0312500
        k(    5) = (   0.0000000   0.1250000   0.0000000), wk =   0.0156250
        k(    6) = (   0.0000000   0.1250000   0.3333333), wk =   0.0312500
        k(    7) = (   0.0000000   0.1875000   0.0000000), wk =   0.0156250
        k(    8) = (   0.0000000   0.1875000   0.3333333), wk =   0.0312500
        k(    9) = (   0.0000000   0.2500000   0.0000000), wk =   0.0156250
        k(   10) = (   0.0000000   0.2500000   0.3333333), wk =   0.0312500
        k(   11) = (   0.0000000   0.3125000   0.0000000), wk =   0.0156250
        k(   12) = (   0.0000000   0.3125000   0.3333333), wk =   0.0312500
        k(   13) = (   0.0000000   0.3750000   0.0000000), wk =   0.0156250
        k(   14) = (   0.0000000   0.3750000   0.3333333), wk =   0.0312500
        k(   15) = (   0.0000000   0.4375000   0.0000000), wk =   0.0156250
        k(   16) = (   0.0000000   0.4375000   0.3333333), wk =   0.0312500
        k(   17) = (   0.0000000  -0.5000000   0.0000000), wk =   0.0078125
        k(   18) = (   0.0000000  -0.5000000   0.3333333), wk =   0.0156250
        k(   19) = (   0.0625000   0.0625000   0.0000000), wk =   0.0156250
        k(   20) = (   0.0625000   0.0625000   0.3333333), wk =   0.0312500
        k(   21) = (   0.0625000   0.1250000   0.0000000), wk =   0.0312500
        k(   22) = (   0.0625000   0.1250000   0.3333333), wk =   0.0625000
        k(   23) = (   0.0625000   0.1875000   0.0000000), wk =   0.0312500
        k(   24) = (   0.0625000   0.1875000   0.3333333), wk =   0.0625000
        k(   25) = (   0.0625000   0.2500000   0.0000000), wk =   0.0312500
        k(   26) = (   0.0625000   0.2500000   0.3333333), wk =   0.0625000
        k(   27) = (   0.0625000   0.3125000   0.0000000), wk =   0.0312500
        k(   28) = (   0.0625000   0.3125000   0.3333333), wk =   0.0625000
        k(   29) = (   0.0625000   0.3750000   0.0000000), wk =   0.0312500
        k(   30) = (   0.0625000   0.3750000   0.3333333), wk =   0.0625000
        k(   31) = (   0.0625000   0.4375000   0.0000000), wk =   0.0312500
        k(   32) = (   0.0625000   0.4375000   0.3333333), wk =   0.0625000
        k(   33) = (   0.1250000   0.1250000   0.0000000), wk =   0.0156250
        k(   34) = (   0.1250000   0.1250000   0.3333333), wk =   0.0312500
        k(   35) = (   0.1250000   0.1875000   0.0000000), wk =   0.0312500
        k(   36) = (   0.1250000   0.1875000   0.3333333), wk =   0.0625000
        k(   37) = (   0.1250000   0.2500000   0.0000000), wk =   0.0312500
        k(   38) = (   0.1250000   0.2500000   0.3333333), wk =   0.0625000
        k(   39) = (   0.1250000   0.3125000   0.0000000), wk =   0.0312500
        k(   40) = (   0.1250000   0.3125000   0.3333333), wk =   0.0625000
        k(   41) = (   0.1250000   0.3750000   0.0000000), wk =   0.0312500
        k(   42) = (   0.1250000   0.3750000   0.3333333), wk =   0.0625000
        k(   43) = (   0.1250000   0.4375000   0.0000000), wk =   0.0156250
        k(   44) = (   0.1250000   0.4375000   0.3333333), wk =   0.0312500
        k(   45) = (   0.1875000   0.1875000   0.0000000), wk =   0.0156250
        k(   46) = (   0.1875000   0.1875000   0.3333333), wk =   0.0312500
        k(   47) = (   0.1875000   0.2500000   0.0000000), wk =   0.0312500
        k(   48) = (   0.1875000   0.2500000   0.3333333), wk =   0.0625000
        k(   49) = (   0.1875000   0.3125000   0.0000000), wk =   0.0312500
        k(   50) = (   0.1875000   0.3125000   0.3333333), wk =   0.0625000
        k(   51) = (   0.1875000   0.3750000   0.0000000), wk =   0.0312500
        k(   52) = (   0.1875000   0.3750000   0.3333333), wk =   0.0625000
        k(   53) = (   0.2500000   0.2500000   0.0000000), wk =   0.0156250
        k(   54) = (   0.2500000   0.2500000   0.3333333), wk =   0.0312500
        k(   55) = (   0.2500000   0.3125000   0.0000000), wk =   0.0312500
        k(   56) = (   0.2500000   0.3125000   0.3333333), wk =   0.0625000
        k(   57) = (   0.2500000   0.3750000   0.0000000), wk =   0.0156250
        k(   58) = (   0.2500000   0.3750000   0.3333333), wk =   0.0312500
        k(   59) = (   0.3125000   0.3125000   0.0000000), wk =   0.0156250
        k(   60) = (   0.3125000   0.3125000   0.3333333), wk =   0.0312500

     Dense  grid:    69899 G-vectors     FFT dimensions: (  36,  36, 150)

     Smooth grid:    24741 G-vectors     FFT dimensions: (  24,  24, 108)

     Dynamical RAM for                 wfc:       0.80 MB

     Dynamical RAM for     wfc (w. buffer):       0.80 MB

     Dynamical RAM for           str. fact:       2.13 MB

     Dynamical RAM for           local pot:       0.00 MB

     Dynamical RAM for          nlocal pot:       2.55 MB

     Dynamical RAM for                qrad:       2.69 MB

     Dynamical RAM for          rho,v,vnew:       7.65 MB

     Dynamical RAM for           G-vectors:       4.19 MB

     Dynamical RAM for          h,s,v(r/c):       0.05 MB

     Dynamical RAM for          <psi|beta>:       0.01 MB

     Dynamical RAM for                 psi:       1.61 MB

     Dynamical RAM for                hpsi:       1.61 MB

     Dynamical RAM for                spsi:       1.61 MB

     Dynamical RAM for      wfcinit/wfcrot:       1.71 MB

     Dynamical RAM for           addusdens:     200.52 MB

     Estimated static dynamical RAM per process >      30.63 MB

     Estimated max dynamical RAM per process >     231.14 MB

     The potential is recalculated from file :
     ./out/aiida.save/charge-density


     negative rho (up, down):  8.507E-06 0.000E+00
     Starting wfcs are   18 randomized atomic wfcs

     Band Structure Calculation
     Davidson diagonalization with overlap

     Computing kpt #:     1  of    60
     total cpu time spent up to now is        2.3 secs

     Computing kpt #:     2  of    60
     total cpu time spent up to now is        3.4 secs

     Computing kpt #:     3  of    60
     total cpu time spent up to now is        4.4 secs

     Computing kpt #:     4  of    60
     total cpu time spent up to now is        5.4 secs

     Computing kpt #:     5  of    60
     total cpu time spent up to now is        6.4 secs

     Computing kpt #:     6  of    60
     total cpu time spent up to now is        7.4 secs

     Computing kpt #:     7  of    60
     total cpu time spent up to now is        8.4 secs

     Computing kpt #:     8  of    60
     total cpu time spent up to now is        9.5 secs

     Computing kpt #:     9  of    60
     total cpu time spent up to now is       10.5 secs

     Computing kpt #:    10  of    60
     total cpu time spent up to now is       11.5 secs

     Computing kpt #:    11  of    60
     total cpu time spent up to now is       12.5 secs

     Computing kpt #:    12  of    60
     total cpu time spent up to now is       13.6 secs

     Computing kpt #:    13  of    60
     total cpu time spent up to now is       14.6 secs

     Computing kpt #:    14  of    60
     total cpu time spent up to now is       15.7 secs

     Computing kpt #:    15  of    60
     total cpu time spent up to now is       16.8 secs

     Computing kpt #:    16  of    60
     total cpu time spent up to now is       17.8 secs

     Computing kpt #:    17  of    60
     total cpu time spent up to now is       18.9 secs

     Computing kpt #:    18  of    60
     total cpu time spent up to now is       20.0 secs

     Computing kpt #:    19  of    60
     total cpu time spent up to now is       21.0 secs

     Computing kpt #:    20  of    60
     total cpu time spent up to now is       22.1 secs

     Computing kpt #:    21  of    60
     total cpu time spent up to now is       23.1 secs

     Computing kpt #:    22  of    60
     total cpu time spent up to now is       24.1 secs

     Computing kpt #:    23  of    60
     total cpu time spent up to now is       25.2 secs

     Computing kpt #:    24  of    60
     total cpu time spent up to now is       26.2 secs

     Computing kpt #:    25  of    60
     total cpu time spent up to now is       27.3 secs

     Computing kpt #:    26  of    60
     total cpu time spent up to now is       28.3 secs

     Computing kpt #:    27  of    60
     total cpu time spent up to now is       29.3 secs

     Computing kpt #:    28  of    60
     total cpu time spent up to now is       30.4 secs

     Computing kpt #:    29  of    60
     total cpu time spent up to now is       31.4 secs

     Computing kpt #:    30  of    60
     total cpu time spent up to now is       32.5 secs

     Computing kpt #:    31  of    60
     total cpu time spent up to now is       33.6 secs

     Computing kpt #:    32  of    60
     total cpu time spent up to now is       34.6 secs

     Computing kpt #:    33  of    60
     total cpu time spent up to now is       35.7 secs

     Computing kpt #:    34  of    60
     total cpu time spent up to now is       36.8 secs

     Computing kpt #:    35  of    60
     total cpu time spent up to now is       37.8 secs

     Computing kpt #:    36  of    60
     total cpu time spent up to now is       38.8 secs

     Computing kpt #:    37  of    60
     total cpu time spent up to now is       39.9 secs

     Computing kpt #:    38  of    60
     total cpu time spent up to now is       41.0 secs

     Computing kpt #:    39  of    60
     total cpu time spent up to now is       42.0 secs

     Computing kpt #:    40  of    60
     total cpu time spent up to now is       43.1 secs

     Computing kpt #:    41  of    60
     total cpu time spent up to now is       44.1 secs

     Computing kpt #:    42  of    60
     total cpu time spent up to now is       45.2 secs

     Computing kpt #:    43  of    60
     total cpu time spent up to now is       46.3 secs

     Computing kpt #:    44  of    60
     total cpu time spent up to now is       47.3 secs

     Computing kpt #:    45  of    60
     total cpu time spent up to now is       48.4 secs

     Computing kpt #:    46  of    60
     total cpu time spent up to now is       49.4 secs

     Computing kpt #:    47  of    60
     total cpu time spent up to now is       50.5 secs

     Computing kpt #:    48  of    60
     total cpu time spent up to now is       51.5 secs

     Computing kpt #:    49  of    60
     total cpu time spent up to now is       52.6 secs

     Computing kpt #:    50  of    60
     total cpu time spent up to now is       53.7 secs

     Computing kpt #:    51  of    60
     total cpu time spent up to now is       54.7 secs

     Computing kpt #:    52  of    60
     total cpu time spent up to now is       55.8 secs

     Computing kpt #:    53  of    60
     total cpu time spent up to now is       56.9 secs

     Computing kpt #:    54  of    60
     total cpu time spent up to now is       57.9 secs

     Computing kpt #:    55  of    60
     total cpu time spent up to now is       59.0 secs

     Computing kpt #:    56  of    60
     total cpu time spent up to now is       60.1 secs

     Computing kpt #:    57  of    60
     total cpu time spent up to now is       61.2 secs

     Computing kpt #:    58  of    60
     total cpu time spent up to now is       62.2 secs

     Computing kpt #:    59  of    60
     total cpu time spent up to now is       63.3 secs

     Computing kpt #:    60  of    60
     total cpu time spent up to now is       64.3 secs

     ethr =  2.31E-12,  avg # of iterations = 32.5

     total cpu time spent up to now is       64.3 secs

     End of band structure calculation

          k = 0.0000 0.0000 0.0000 (  3089 PWs)   bands (ev):

   -60.1424 -34.3155 -34.1178 -34.1177 -13.4884 -12.0973  -5.0385  -2.1128
    -2.1128  -1.0558  -0.9671  -0.9670   0.7160   3.3883   3.3884   3.7005
     3.7005

     occupation numbers 
     1.0000   1.0000   1.0000   1.0000   1.0000   1.0000   1.0000   1.0000
     1.0000   1.0000   1.0000   1.0000   1.0001   0.0000   0.0000   0.0000
     0.0000

          k = 0.0000 0.0000 0.0715 (  3095 PWs)   bands (ev):

   -60.1424 -34.3155 -34.1178 -34.1177 -13.4885 -12.0973  -5.0385  -2.1128
    -2.1128  -1.0558  -0.9671  -0.9670   0.7160   3.3884   3.3884   3.7005
     3.7005

     occupation numbers 
     1.0000   1.0000   1.0000   1.0000   1.0000   1.0000   1.0000   1.0000
     1.0000   1.0000   1.0000   1.0000   1.0001   0.0000   0.0000   0.0000
     0.0000

          k = 0.0000 0.0722 0.0000 (  3101 PWs)   bands (ev):

   -60.1410 -34.3127 -34.1323 -34.1210 -13.4303 -12.0748  -4.9727  -2.2431
    -2.0512  -1.4794  -1.0613  -0.6247   0.6837   3.3004   3.4955   3.5332
     3.6310

     occupation numbers 
     1.0000   1.0000   1.0000   1.0000   1.0000   1.0000   1.0000   1.0000
     1.0000   1.0000   1.0000   1.0000   1.0001   0.0000   0.0000   0.0000
     0.0000

          k = 0.0000 0.0722 0.0715 (  3103 PWs)   bands (ev):

   -60.1410 -34.3127 -34.1323 -34.1210 -13.4303 -12.0748  -4.9728  -2.2431
    -2.0512  -1.4794  -1.0613  -0.6247   0.6837   3.3003   3.4955   3.5333
     3.6310

     occupation numbers 
     1.0000   1.0000   1.0000   1.0000   1.0000   1.0000   1.0000   1.0000
     1.0000   1.0000   1.0000   1.0000   1.0001   0.0000   0.0000   0.0000
     0.0000

          k = 0.0000 0.1443 0.0000 (  3102 PWs)   bands (ev):

   -60.1370 -34.3046 -34.1736 -34.1304 -13.2609 -12.0094  -4.7921  -2.5767
    -1.9724  -1.8734  -1.3058  -0.4130   0.5570   3.1786   3.1926   3.4503
     3.7707

     occupation numbers 
     1.0000   1.0000   1.0000   1.0000   1.0000   1.0000   1.0000   1.0000
     1.0000   1.0000   1.0000   1.0000   1.0000   0.0000   0.0000   0.0000
     0.0000

          k = 0.0000 0.1443 0.0715 (  3110 PWs)   bands (ev):

   -60.1370 -34.3046 -34.1736 -34.1304 -13.2609 -12.0094  -4.7921  -2.5767
    -1.9724  -1.8734  -1.3058  -0.4130   0.5570   3.1785   3.1928   3.4503
     3.7707

     occupation numbers 
     1.0000   1.0000   1.0000   1.0000   1.0000   1.0000   1.0000   1.0000
     1.0000   1.0000   1.0000   1.0000   1.0000   0.0000   0.0000   0.0000
     0.0000

          k = 0.0000 0.2165 0.0000 (  3098 PWs)   bands (ev):

   -60.1310 -34.2924 -34.2348 -34.1444 -12.9960 -11.9072  -4.5621  -2.9758
    -2.4728  -1.6226  -1.6005  -0.4363   0.2865   2.9338   3.2218   3.2449
     4.1166

     occupation numbers 
     1.0000   1.0000   1.0000   1.0000   1.0000   1.0000   1.0000   1.0000
     1.0000   1.0000   1.0000   1.0000   1.0000   0.0000   0.0000   0.0000
     0.0000

          k = 0.0000 0.2165 0.0715 (  3117 PWs)   bands (ev):

   -60.1310 -34.2924 -34.2348 -34.1444 -12.9960 -11.9072  -4.5621  -2.9759
    -2.4728  -1.6226  -1.6005  -0.4364   0.2866   2.9339   3.2218   3.2448
     4.1166

     occupation numbers 
     1.0000   1.0000   1.0000   1.0000   1.0000   1.0000   1.0000   1.0000
     1.0000   1.0000   1.0000   1.0000   1.0000   0.0000   0.0000   0.0000
     0.0000

          k = 0.0000 0.2887 0.0000 (  3104 PWs)   bands (ev):

   -60.1239 -34.3063 -34.2780 -34.1609 -12.6623 -11.7794  -4.4470  -3.2522
    -2.9664  -1.9444  -1.2696  -0.6271  -0.0726   2.8708   3.0114   3.5310
     4.4460

     occupation numbers 
     1.0000   1.0000   1.0000   1.0000   1.0000   1.0000   1.0000   1.0000
     1.0000   1.0000   1.0000   1.0000   1.0000   0.0000   0.0000   0.0000
     0.0000

          k = 0.0000 0.2887 0.0715 (  3109 PWs)   bands (ev):

   -60.1239 -34.3063 -34.2780 -34.1609 -12.6623 -11.7794  -4.4470  -3.2522
    -2.9664  -1.9444  -1.2696  -0.6271  -0.0726   2.8709   3.0114   3.5308
     4.4460

     occupation numbers 
     1.0000   1.0000   1.0000   1.0000   1.0000   1.0000   1.0000   1.0000
     1.0000   1.0000   1.0000   1.0000   1.0000   0.0000   0.0000   0.0000
     0.0000

          k = 0.0000 0.3608 0.0000 (  3106 PWs)   bands (ev):

   -60.1168 -34.3770 -34.2635 -34.1773 -12.2993 -11.6423  -4.6043  -3.4273
    -3.3050  -2.2267  -0.9333  -0.8505  -0.3228   2.8675   2.9623   3.9117
     4.7071

     occupation numbers 
     1.0000   1.0000   1.0000   1.0000   1.0000   1.0000   1.0000   1.0000
     1.0000   1.0000   1.0000   1.0000   1.0000   0.0000   0.0000   0.0000
     0.0000

          k = 0.0000 0.3608 0.0715 (  3097 PWs)   bands (ev):

   -60.1168 -34.3770 -34.2635 -34.1773 -12.2993 -11.6423  -4.6043  -3.4273
    -3.3050  -2.2267  -0.9333  -0.8505  -0.3228   2.8675   2.9624   3.9116
     4.7071

     occupation numbers 
     1.0000   1.0000   1.0000   1.0000   1.0000   1.0000   1.0000   1.0000
     1.0000   1.0000   1.0000   1.0000   1.0000   0.0000   0.0000   0.0000
     0.0000

          k = 0.0000 0.4330 0.0000 (  3092 PWs)   bands (ev):

   -60.1107 -34.4363 -34.2512 -34.1912 -11.9611 -11.5176  -4.8843  -3.8120
    -3.3404  -2.4430  -1.0248  -0.6508  -0.3062   2.8089   3.1263   4.2487
     4.8838

     occupation numbers 
     1.0000   1.0000   1.0000   1.0000   1.0000   1.0000   1.0000   1.0000
     1.0000   1.0000   1.0000   1.0000   1.0000   0.0000   0.0000   0.0000
     0.0000

          k = 0.0000 0.4330 0.0715 (  3095 PWs)   bands (ev):

   -60.1107 -34.4363 -34.2512 -34.1912 -11.9611 -11.5176  -4.8843  -3.8120
    -3.3404  -2.4430  -1.0248  -0.6508  -0.3062   2.8088   3.1263   4.2487
     4.8838

     occupation numbers 
     1.0000   1.0000   1.0000   1.0000   1.0000   1.0000   1.0000   1.0000
     1.0000   1.0000   1.0000   1.0000   1.0000   0.0000   0.0000   0.0000
     0.0000

          k = 0.0000 0.5052 0.0000 (  3102 PWs)   bands (ev):

   -60.1067 -34.4756 -34.2430 -34.2004 -11.7146 -11.4291  -5.1101  -4.0696
    -3.4320  -2.5780  -1.1277  -0.4686  -0.1187   2.8119   3.2891   4.4557
     4.9822

     occupation numbers 
     1.0000   1.0000   1.0000   1.0000   1.0000   1.0000   1.0000   1.0000
     1.0000   1.0000   1.0000   1.0000   1.0000   0.0000   0.0000   0.0000
     0.0000

          k = 0.0000 0.5052 0.0715 (  3099 PWs)   bands (ev):

   -60.1067 -34.4756 -34.2430 -34.2004 -11.7146 -11.4291  -5.1101  -4.0696
    -3.4320  -2.5780  -1.1277  -0.4686  -0.1187   2.8119   3.2891   4.4557
     4.9822

     occupation numbers 
     1.0000   1.0000   1.0000   1.0000   1.0000   1.0000   1.0000   1.0000
     1.0000   1.0000   1.0000   1.0000   1.0000   0.0000   0.0000   0.0000
     0.0000

          k = 0.0000-0.5774 0.0000 (  3092 PWs)   bands (ev):

   -60.1053 -34.4894 -34.2401 -34.2036 -11.6232 -11.3969  -5.1953  -4.1605
    -3.4797  -2.6238  -1.1610  -0.4068  -0.0135   2.8229   3.3633   4.5208
     5.0133

     occupation numbers 
     1.0000   1.0000   1.0000   1.0000   1.0000   1.0000   1.0000   1.0000
     1.0000   1.0000   1.0000   1.0000   1.0000   0.0000   0.0000   0.0000
     0.0000

          k = 0.0000-0.5774 0.0715 (  3098 PWs)   bands (ev):

   -60.1053 -34.4894 -34.2401 -34.2036 -11.6232 -11.3969  -5.1953  -4.1605
    -3.4797  -2.6238  -1.1610  -0.4068  -0.0135   2.8229   3.3633   4.5207
     5.0133

     occupation numbers 
     1.0000   1.0000   1.0000   1.0000   1.0000   1.0000   1.0000   1.0000
     1.0000   1.0000   1.0000   1.0000   1.0000   0.0000   0.0000   0.0000
     0.0000

          k = 0.0625 0.1083 0.0000 (  3105 PWs)   bands (ev):

   -60.1383 -34.3072 -34.1598 -34.1278 -13.3164 -12.0308  -4.8489  -2.4731
    -1.9334  -1.8232  -1.2683  -0.4203   0.6042   3.1770   3.2890   3.4986
     3.7034

     occupation numbers 
     1.0000   1.0000   1.0000   1.0000   1.0000   1.0000   1.0000   1.0000
     1.0000   1.0000   1.0000   1.0000   1.0000   0.0000   0.0000   0.0000
     0.0000

          k = 0.0625 0.1083 0.0715 (  3107 PWs)   bands (ev):

   -60.1383 -34.3072 -34.1598 -34.1278 -13.3164 -12.0308  -4.8489  -2.4731
    -1.9334  -1.8232  -1.2683  -0.4203   0.6042   3.1769   3.2892   3.4986
     3.7034

     occupation numbers 
     1.0000   1.0000   1.0000   1.0000   1.0000   1.0000   1.0000   1.0000
     1.0000   1.0000   1.0000   1.0000   1.0000   0.0000   0.0000   0.0000
     0.0000

          k = 0.0625 0.1804 0.0000 (  3107 PWs)   bands (ev):

   -60.1333 -34.2970 -34.2099 -34.1406 -13.0991 -11.9468  -4.6378  -2.8338
    -2.2490  -1.7169  -1.6191  -0.3136   0.4029   2.9982   3.1143   3.2931
     4.0431

     occupation numbers 
     1.0000   1.0000   1.0000   1.0000   1.0000   1.0000   1.0000   1.0000
     1.0000   1.0000   1.0000   1.0000   1.0000   0.0000   0.0000   0.0000
     0.0000

          k = 0.0625 0.1804 0.0715 (  3114 PWs)   bands (ev):

   -60.1333 -34.2970 -34.2099 -34.1406 -13.0991 -11.9468  -4.6378  -2.8338
    -2.2490  -1.7169  -1.6191  -0.3136   0.4029   2.9984   3.1142   3.2931
     4.0431

     occupation numbers 
     1.0000   1.0000   1.0000   1.0000   1.0000   1.0000   1.0000   1.0000
     1.0000   1.0000   1.0000   1.0000   1.0000   0.0000   0.0000   0.0000
     0.0000

          k = 0.0625 0.2526 0.0000 (  3105 PWs)   bands (ev):

   -60.1267 -34.2837 -34.2748 -34.1574 -12.7992 -11.8312  -4.4476  -3.1647
    -2.7165  -1.9737  -1.4415  -0.4076   0.0798   2.8171   3.1137   3.2685
     4.4003

     occupation numbers 
     1.0000   1.0000   1.0000   1.0000   1.0000   1.0000   1.0000   1.0000
     1.0000   1.0000   1.0000   1.0000   1.0000   0.0000   0.0000   0.0000
     0.0000

          k = 0.0625 0.2526 0.0715 (  3104 PWs)   bands (ev):

   -60.1267 -34.2837 -34.2748 -34.1574 -12.7992 -11.8312  -4.4476  -3.1647
    -2.7165  -1.9737  -1.4415  -0.4076   0.0798   2.8172   3.1137   3.2684
     4.4002

     occupation numbers 
     1.0000   1.0000   1.0000   1.0000   1.0000   1.0000   1.0000   1.0000
     1.0000   1.0000   1.0000   1.0000   1.0000   0.0000   0.0000   0.0000
     0.0000

          k = 0.0625 0.3248 0.0000 (  3108 PWs)   bands (ev):

   -60.1196 -34.3442 -34.2693 -34.1755 -12.4494 -11.6975  -4.4753  -3.2860
    -3.2057  -2.2516  -1.1766  -0.6287  -0.2138   2.7605   3.0400   3.5993
     4.6946

     occupation numbers 
     1.0000   1.0000   1.0000   1.0000   1.0000   1.0000   1.0000   1.0000
     1.0000   1.0000   1.0000   1.0000   1.0000   0.0000   0.0000   0.0000
     0.0000

          k = 0.0625 0.3248 0.0715 (  3096 PWs)   bands (ev):

   -60.1196 -34.3442 -34.2693 -34.1755 -12.4494 -11.6975  -4.4753  -3.2860
    -3.2057  -2.2516  -1.1766  -0.6287  -0.2138   2.7606   3.0401   3.5992
     4.6945

     occupation numbers 
     1.0000   1.0000   1.0000   1.0000   1.0000   1.0000   1.0000   1.0000
     1.0000   1.0000   1.0000   1.0000   1.0000   0.0000   0.0000   0.0000
     0.0000

          k = 0.0625 0.3969 0.0000 (  3094 PWs)   bands (ev):

   -60.1130 -34.4076 -34.2559 -34.1922 -12.0960 -11.5645  -4.7138  -3.6576
    -3.2860  -2.4413  -0.9870  -0.8643  -0.2629   2.7819   3.0868   3.9812
     4.8775

     occupation numbers 
     1.0000   1.0000   1.0000   1.0000   1.0000   1.0000   1.0000   1.0000
     1.0000   1.0000   1.0000   1.0000   1.0000   0.0000   0.0000   0.0000
     0.0000

          k = 0.0625 0.3969 0.0715 (  3088 PWs)   bands (ev):

   -60.1130 -34.4076 -34.2559 -34.1922 -12.0960 -11.5645  -4.7138  -3.6576
    -3.2860  -2.4413  -0.9870  -0.8643  -0.2629   2.7819   3.0868   3.9811
     4.8775

     occupation numbers 
     1.0000   1.0000   1.0000   1.0000   1.0000   1.0000   1.0000   1.0000
     1.0000   1.0000   1.0000   1.0000   1.0000   0.0000   0.0000   0.0000
     0.0000

          k = 0.0625 0.4691 0.0000 (  3099 PWs)   bands (ev):

   -60.1080 -34.4558 -34.2457 -34.2049 -11.7995 -11.4554  -4.9655  -4.0043
    -3.3594  -2.5567  -1.0448  -0.8303  -0.1001   2.8279   3.2186   4.3161
     4.9274

     occupation numbers 
     1.0000   1.0000   1.0000   1.0000   1.0000   1.0000   1.0000   1.0000
     1.0000   1.0000   1.0000   1.0000   1.0000   0.0000   0.0000   0.0000
     0.0000

          k = 0.0625 0.4691 0.0715 (  3093 PWs)   bands (ev):

   -60.1080 -34.4558 -34.2457 -34.2049 -11.7995 -11.4554  -4.9655  -4.0043
    -3.3594  -2.5567  -1.0448  -0.8303  -0.1001   2.8279   3.2186   4.3161
     4.9274

     occupation numbers 
     1.0000   1.0000   1.0000   1.0000   1.0000   1.0000   1.0000   1.0000
     1.0000   1.0000   1.0000   1.0000   1.0000   0.0000   0.0000   0.0000
     0.0000

          k = 0.0625 0.5413 0.0000 (  3100 PWs)   bands (ev):

   -60.1053 -34.4817 -34.2401 -34.2117 -11.6271 -11.3934  -5.1171  -4.1924
    -3.4466  -2.6108  -1.1400  -0.7239   0.0680   2.8428   3.3600   4.5467
     4.8750

     occupation numbers 
     1.0000   1.0000   1.0000   1.0000   1.0000   1.0000   1.0000   1.0000
     1.0000   1.0000   1.0000   1.0000   1.0000   0.0000   0.0000   0.0000
     0.0000

          k = 0.0625 0.5413 0.0715 (  3103 PWs)   bands (ev):

   -60.1053 -34.4817 -34.2401 -34.2117 -11.6271 -11.3934  -5.1171  -4.1924
    -3.4466  -2.6108  -1.1400  -0.7239   0.0680   2.8428   3.3600   4.5467
     4.8750

     occupation numbers 
     1.0000   1.0000   1.0000   1.0000   1.0000   1.0000   1.0000   1.0000
     1.0000   1.0000   1.0000   1.0000   1.0000   0.0000   0.0000   0.0000
     0.0000

          k = 0.1250 0.2165 0.0000 (  3113 PWs)   bands (ev):

   -60.1277 -34.2858 -34.2617 -34.1582 -12.8464 -11.8489  -4.4514  -3.1193
    -2.5511  -2.1071  -1.5183  -0.2537   0.1406   2.7896   3.1069   3.1479
     4.4190

     occupation numbers 
     1.0000   1.0000   1.0000   1.0000   1.0000   1.0000   1.0000   1.0000
     1.0000   1.0000   1.0000   1.0000   1.0000   0.0000   0.0000   0.0000
     0.0000

          k = 0.1250 0.2165 0.0715 (  3112 PWs)   bands (ev):

   -60.1277 -34.2858 -34.2617 -34.1582 -12.8464 -11.8489  -4.4514  -3.1193
    -2.5511  -2.1071  -1.5183  -0.2537   0.1406   2.7897   3.1068   3.1479
     4.4189

     occupation numbers 
     1.0000   1.0000   1.0000   1.0000   1.0000   1.0000   1.0000   1.0000
     1.0000   1.0000   1.0000   1.0000   1.0000   0.0000   0.0000   0.0000
     0.0000

          k = 0.1250 0.2887 0.0000 (  3099 PWs)   bands (ev):

   -60.1212 -34.3210 -34.2724 -34.1799 -12.5288 -11.7258  -4.3877  -3.2574
    -2.9855  -2.4511  -1.3760  -0.3620  -0.1303   2.6539   3.1075   3.2835
     4.7531

     occupation numbers 
     1.0000   1.0000   1.0000   1.0000   1.0000   1.0000   1.0000   1.0000
     1.0000   1.0000   1.0000   1.0000   1.0000   0.0000   0.0000   0.0000
     0.0000

          k = 0.1250 0.2887 0.0715 (  3099 PWs)   bands (ev):

   -60.1212 -34.3210 -34.2724 -34.1799 -12.5288 -11.7258  -4.3877  -3.2574
    -2.9855  -2.4511  -1.3760  -0.3620  -0.1303   2.6539   3.1075   3.2835
     4.7529

     occupation numbers 
     1.0000   1.0000   1.0000   1.0000   1.0000   1.0000   1.0000   1.0000
     1.0000   1.0000   1.0000   1.0000   1.0000   0.0000   0.0000   0.0000
     0.0000

          k = 0.1250 0.3608 0.0000 (  3092 PWs)   bands (ev):

   -60.1146 -34.3794 -34.2591 -34.2021 -12.1848 -11.5931  -4.5354  -3.5129
    -3.2156  -2.5818  -1.3760  -0.5991  -0.2163   2.6871   3.1241   3.6023
     4.9680

     occupation numbers 
     1.0000   1.0000   1.0000   1.0000   1.0000   1.0000   1.0000   1.0000
     1.0000   1.0000   1.0000   1.0000   1.0000   0.0000   0.0000   0.0000
     0.0000

          k = 0.1250 0.3608 0.0715 (  3094 PWs)   bands (ev):

   -60.1146 -34.3794 -34.2591 -34.2021 -12.1848 -11.5931  -4.5354  -3.5129
    -3.2156  -2.5818  -1.3760  -0.5991  -0.2163   2.6871   3.1241   3.6023
     4.9679

     occupation numbers 
     1.0000   1.0000   1.0000   1.0000   1.0000   1.0000   1.0000   1.0000
     1.0000   1.0000   1.0000   1.0000   1.0000   0.0000   0.0000   0.0000
     0.0000

          k = 0.1250 0.4330 0.0000 (  3081 PWs)   bands (ev):

   -60.1090 -34.4283 -34.2477 -34.2209 -11.8665 -11.4716  -4.7489  -3.9651
    -3.2309  -2.6105  -1.3883  -0.8653  -0.0971   2.8364   3.1750   3.9581
     5.0291

     occupation numbers 
     1.0000   1.0000   1.0000   1.0000   1.0000   1.0000   1.0000   1.0000
     1.0000   1.0000   1.0000   1.0000   1.0000   0.0000   0.0000   0.0000
     0.0000

          k = 0.1250 0.4330 0.0715 (  3077 PWs)   bands (ev):

   -60.1090 -34.4283 -34.2477 -34.2209 -11.8665 -11.4716  -4.7489  -3.9651
    -3.2309  -2.6105  -1.3883  -0.8653  -0.0971   2.8364   3.1750   3.9581
     5.0290

     occupation numbers 
     1.0000   1.0000   1.0000   1.0000   1.0000   1.0000   1.0000   1.0000
     1.0000   1.0000   1.0000   1.0000   1.0000   0.0000   0.0000   0.0000
     0.0000

          k = 0.1250 0.5052 0.0000 (  3095 PWs)   bands (ev):

   -60.1053 -34.4608 -34.2401 -34.2335 -11.6364 -11.3848  -4.9096  -4.2641
    -3.3458  -2.5934  -1.3342  -1.0728   0.0986   2.8509   3.3730   4.2695
     4.9534

     occupation numbers 
     1.0000   1.0000   1.0000   1.0000   1.0000   1.0000   1.0000   1.0000
     1.0000   1.0000   1.0000   1.0000   1.0000   0.0000   0.0000   0.0000
     0.0000

          k = 0.1250 0.5052 0.0715 (  3089 PWs)   bands (ev):

   -60.1053 -34.4608 -34.2401 -34.2335 -11.6364 -11.3848  -4.9096  -4.2641
    -3.3458  -2.5934  -1.3342  -1.0728   0.0986   2.8509   3.3730   4.2695
     4.9534

     occupation numbers 
     1.0000   1.0000   1.0000   1.0000   1.0000   1.0000   1.0000   1.0000
     1.0000   1.0000   1.0000   1.0000   1.0000   0.0000   0.0000   0.0000
     0.0000

          k = 0.1250 0.5774 0.0000 (  3108 PWs)   bands (ev):

   -60.1040 -34.4721 -34.2380 -34.2375 -11.5516 -11.3532  -4.9681  -4.3685
    -3.4086  -2.5793  -1.3035  -1.1523   0.2011   2.8100   3.5065   4.4257
     4.8686

     occupation numbers 
     1.0000   1.0000   1.0000   1.0000   1.0000   1.0000   1.0000   1.0000
     1.0000   1.0000   1.0000   1.0000   1.0000   0.0000   0.0000   0.0000
     0.0000

          k = 0.1250 0.5774 0.0715 (  3096 PWs)   bands (ev):

   -60.1040 -34.4721 -34.2380 -34.2375 -11.5516 -11.3532  -4.9681  -4.3685
    -3.4086  -2.5793  -1.3035  -1.1523   0.2011   2.8100   3.5065   4.4257
     4.8686

     occupation numbers 
     1.0000   1.0000   1.0000   1.0000   1.0000   1.0000   1.0000   1.0000
     1.0000   1.0000   1.0000   1.0000   1.0000   0.0000   0.0000   0.0000
     0.0000

          k = 0.1875 0.3248 0.0000 (  3096 PWs)   bands (ev):

   -60.1151 -34.3667 -34.2602 -34.2084 -12.2157 -11.6027  -4.4565  -3.4372
    -3.1787  -2.6747  -1.5433  -0.4663  -0.2047   2.6421   3.1436   3.4273
     5.0163

     occupation numbers 
     1.0000   1.0000   1.0000   1.0000   1.0000   1.0000   1.0000   1.0000
     1.0000   1.0000   1.0000   1.0000   1.0000   0.0000   0.0000   0.0000
     0.0000

          k = 0.1875 0.3248 0.0715 (  3098 PWs)   bands (ev):

   -60.1151 -34.3667 -34.2602 -34.2084 -12.2157 -11.6027  -4.4565  -3.4372
    -3.1787  -2.6747  -1.5433  -0.4663  -0.2047   2.6422   3.1436   3.4272
     5.0162

     occupation numbers 
     1.0000   1.0000   1.0000   1.0000   1.0000   1.0000   1.0000   1.0000
     1.0000   1.0000   1.0000   1.0000   1.0000   0.0000   0.0000   0.0000
     0.0000

          k = 0.1875 0.3969 0.0000 (  3085 PWs)   bands (ev):

   -60.1096 -34.4061 -34.2488 -34.2371 -11.9033 -11.4789  -4.5794  -3.9400
    -3.0843  -2.6788  -1.8267  -0.7058  -0.1194   2.8194   3.1696   3.6695
     5.1497

     occupation numbers 
     1.0000   1.0000   1.0000   1.0000   1.0000   1.0000   1.0000   1.0000
     1.0000   1.0000   1.0000   1.0000   1.0000   0.0000   0.0000   0.0000
     0.0000

          k = 0.1875 0.3969 0.0715 (  3084 PWs)   bands (ev):

   -60.1096 -34.4061 -34.2488 -34.2371 -11.9033 -11.4789  -4.5794  -3.9400
    -3.0843  -2.6788  -1.8267  -0.7058  -0.1194   2.8195   3.1696   3.6694
     5.1497

     occupation numbers 
     1.0000   1.0000   1.0000   1.0000   1.0000   1.0000   1.0000   1.0000
     1.0000   1.0000   1.0000   1.0000   1.0000   0.0000   0.0000   0.0000
     0.0000

          k = 0.1875 0.4691 0.0000 (  3091 PWs)   bands (ev):

   -60.1053 -34.4348 -34.2604 -34.2401 -11.6456 -11.3762  -4.6667  -4.3298
    -3.1677  -2.5926  -1.9732  -0.9826   0.0759   2.8218   3.4052   3.9103
     5.1743

     occupation numbers 
     1.0000   1.0000   1.0000   1.0000   1.0000   1.0000   1.0000   1.0000
     1.0000   1.0000   1.0000   1.0000   1.0000   0.0000   0.0000   0.0000
     0.0000

          k = 0.1875 0.4691 0.0715 (  3082 PWs)   bands (ev):

   -60.1053 -34.4348 -34.2604 -34.2401 -11.6456 -11.3762  -4.6667  -4.3298
    -3.1677  -2.5926  -1.9732  -0.9826   0.0759   2.8218   3.4052   3.9103
     5.1743

     occupation numbers 
     1.0000   1.0000   1.0000   1.0000   1.0000   1.0000   1.0000   1.0000
     1.0000   1.0000   1.0000   1.0000   1.0000   0.0000   0.0000   0.0000
     0.0000

          k = 0.1875 0.5413 0.0000 (  3085 PWs)   bands (ev):

   -60.1030 -34.4498 -34.2734 -34.2354 -11.4981 -11.3173  -4.6984  -4.5398
    -3.3190  -2.5026  -1.9910  -1.1779   0.2702   2.6701   3.7042   4.0613
     5.1508

     occupation numbers 
     1.0000   1.0000   1.0000   1.0000   1.0000   1.0000   1.0000   1.0000
     1.0000   1.0000   1.0000   1.0000   1.0000   0.0000   0.0000   0.0000
     0.0000

          k = 0.1875 0.5413 0.0715 (  3090 PWs)   bands (ev):

   -60.1030 -34.4498 -34.2734 -34.2354 -11.4981 -11.3173  -4.6984  -4.5398
    -3.3190  -2.5026  -1.9910  -1.1779   0.2702   2.6701   3.7042   4.0613
     5.1508

     occupation numbers 
     1.0000   1.0000   1.0000   1.0000   1.0000   1.0000   1.0000   1.0000
     1.0000   1.0000   1.0000   1.0000   1.0000   0.0000   0.0000   0.0000
     0.0000

          k = 0.2500 0.4330 0.0000 (  3082 PWs)   bands (ev):

   -60.1053 -34.4213 -34.2743 -34.2402 -11.6494 -11.3726  -4.5523  -4.3556
    -3.0027  -2.5963  -2.3297  -0.9388   0.0603   2.8036   3.4211   3.7666
     5.2719

     occupation numbers 
     1.0000   1.0000   1.0000   1.0000   1.0000   1.0000   1.0000   1.0000
     1.0000   1.0000   1.0000   1.0000   1.0000   0.0000   0.0000   0.0000
     0.0000

          k = 0.2500 0.4330 0.0715 (  3083 PWs)   bands (ev):

   -60.1053 -34.4213 -34.2743 -34.2402 -11.6494 -11.3726  -4.5523  -4.3556
    -3.0027  -2.5963  -2.3297  -0.9388   0.0603   2.8036   3.4211   3.7666
     5.2718

     occupation numbers 
     1.0000   1.0000   1.0000   1.0000   1.0000   1.0000   1.0000   1.0000
     1.0000   1.0000   1.0000   1.0000   1.0000   0.0000   0.0000   0.0000
     0.0000

          k = 0.2500 0.5052 0.0000 (  3086 PWs)   bands (ev):

   -60.1024 -34.4260 -34.3045 -34.2343 -11.4709 -11.2958  -4.6429  -4.4445
    -3.1498  -2.5949  -2.4424  -1.1978   0.3054   2.5521   3.8292   3.8326
     5.3581

     occupation numbers 
     1.0000   1.0000   1.0000   1.0000   1.0000   1.0000   1.0000   1.0000
     1.0000   1.0000   1.0000   1.0000   1.0000   0.0000   0.0000   0.0000
     0.0000

          k = 0.2500 0.5052 0.0715 (  3076 PWs)   bands (ev):

   -60.1024 -34.4260 -34.3045 -34.2343 -11.4709 -11.2958  -4.6429  -4.4445
    -3.1498  -2.5949  -2.4424  -1.1978   0.3054   2.5521   3.8292   3.8326
     5.3581

     occupation numbers 
     1.0000   1.0000   1.0000   1.0000   1.0000   1.0000   1.0000   1.0000
     1.0000   1.0000   1.0000   1.0000   1.0000   0.0000   0.0000   0.0000
     0.0000

          k = 0.2500 0.5774 0.0000 (  3082 PWs)   bands (ev):

   -60.1014 -34.4260 -34.3168 -34.2323 -11.4064 -11.2676  -4.7447  -4.3624
    -3.3147  -2.6272  -2.3547  -1.3239   0.4409   2.4028   3.8532   4.0231
     5.3912

     occupation numbers 
     1.0000   1.0000   1.0000   1.0000   1.0000   1.0000   1.0000   1.0000
     1.0000   1.0000   1.0000   1.0000   1.0000   0.0000   0.0000   0.0000
     0.0000

          k = 0.2500 0.5774 0.0715 (  3083 PWs)   bands (ev):

   -60.1014 -34.4260 -34.3168 -34.2323 -11.4064 -11.2676  -4.7447  -4.3624
    -3.3147  -2.6272  -2.3547  -1.3239   0.4409   2.4028   3.8532   4.0232
     5.3912

     occupation numbers 
     1.0000   1.0000   1.0000   1.0000   1.0000   1.0000   1.0000   1.0000
     1.0000   1.0000   1.0000   1.0000   1.0000   0.0000   0.0000   0.0000
     0.0000

          k = 0.3125 0.5413 0.0000 (  3070 PWs)   bands (ev):

   -60.1009 -34.4070 -34.3427 -34.2312 -11.3744 -11.2493  -4.8195  -4.1224
    -3.3636  -2.9239  -2.2749  -1.4016   0.5258   2.2709   3.7720   4.1510
     5.4945

     occupation numbers 
     1.0000   1.0000   1.0000   1.0000   1.0000   1.0000   1.0000   1.0000
     1.0000   1.0000   1.0000   1.0000   1.0000   0.0001   0.0000   0.0000
     0.0000

          k = 0.3125 0.5413 0.0715 (  3073 PWs)   bands (ev):

   -60.1009 -34.4070 -34.3427 -34.2312 -11.3744 -11.2493  -4.8195  -4.1224
    -3.3636  -2.9239  -2.2749  -1.4016   0.5258   2.2709   3.7720   4.1510
     5.4945

     occupation numbers 
     1.0000   1.0000   1.0000   1.0000   1.0000   1.0000   1.0000   1.0000
     1.0000   1.0000   1.0000   1.0000   1.0000   0.0001   0.0000   0.0000
     0.0000

     the Fermi energy is     1.6678 ev
     (compare with:     1.6675 eV, computed in scf)

     Writing all to output data dir ./out/aiida.save/ :
     XML data file, pseudopotentials, collected wavefunctions

     init_run     :      1.03s CPU      1.00s WALL (       1 calls)
     electrons    :    185.08s CPU     63.20s WALL (       1 calls)

     Called by init_run:
     wfcinit      :      0.00s CPU      0.00s WALL (       1 calls)
     wfcinit:atom :      0.15s CPU      0.06s WALL (      60 calls)
     wfcinit:wfcr :      6.03s CPU      2.24s WALL (      60 calls)
     potinit      :      0.31s CPU      0.32s WALL (       1 calls)
     hinit0       :      0.48s CPU      0.48s WALL (       1 calls)

     Called by electrons:
     c_bands      :    185.07s CPU     63.20s WALL (       1 calls)
     v_of_rho     :      0.04s CPU      0.05s WALL (       1 calls)
     v_h          :      0.00s CPU      0.00s WALL (       1 calls)
     v_xc         :      0.04s CPU      0.05s WALL (       1 calls)
     newd         :      0.22s CPU      0.17s WALL (       1 calls)

     Called by c_bands:
     init_us_2    :      0.31s CPU      0.11s WALL (      60 calls)
     cegterg      :    175.52s CPU     59.53s WALL (     120 calls)

     Called by sum_band:

     Called by *egterg:
     cdiaghg      :      4.69s CPU      1.38s WALL (    2007 calls)
     cegterg:over :      7.58s CPU      1.03s WALL (    1947 calls)
     cegterg:upda :      3.34s CPU      0.55s WALL (    1947 calls)
     cegterg:last :      6.51s CPU      0.98s WALL (    1659 calls)
     h_psi        :    152.51s CPU     56.43s WALL (    2127 calls)
     s_psi        :      1.76s CPU      0.33s WALL (    2127 calls)
     g_psi        :      2.63s CPU      0.52s WALL (    1947 calls)

     Called by h_psi:
     h_psi:calbec :      4.12s CPU      0.87s WALL (    2127 calls)
     vloc_psi     :    146.06s CPU     54.97s WALL (    2127 calls)
     add_vuspsi   :      1.61s CPU      0.39s WALL (    2127 calls)

     General routines
     calbec       :      4.10s CPU      0.86s WALL (    2127 calls)
     fft          :      0.32s CPU      0.32s WALL (      13 calls)
     ffts         :      0.27s CPU      0.27s WALL (       1 calls)
     fftw         :    118.02s CPU     45.68s WALL (   60596 calls)
     interpolate  :      0.27s CPU      0.27s WALL (       1 calls)
     davcio       :      0.85s CPU      0.46s WALL (     120 calls)

     Parallel routines

     PWSCF        :   3m 6.44s CPU   1m 4.44s WALL


   This run was terminated on:  13:44:52  12Dec2024            

=------------------------------------------------------------------------------=
   JOB DONE.
=------------------------------------------------------------------------------=
