
     Program PWSCF v.7.3.1 starts on 12Dec2024 at 13:29:41 

     This program is part of the open-source Quantum ESPRESSO suite
     for quantum simulation of materials; please cite
         "P. Giannozzi et al., J. Phys.:Condens. Matter 21 395502 (2009);
         "P. Giannozzi et al., J. Phys.:Condens. Matter 29 465901 (2017);
         "P. Giannozzi et al., J. Chem. Phys. 152 154105 (2020);
          URL http://www.quantum-espresso.org", 
     in publications or presentations arising from this work. More details at
     http://www.quantum-espresso.org/quote

     Parallel version (MPI), running on     1 processors

     MPI processes distributed on     1 nodes
     24638 MiB available memory on the printing compute node when the environment starts

     Waiting for input...
     Reading input from standard input

     Current dimensions of program PWSCF are:
     Max number of different atomic species (ntypx) = 10
     Max number of k-points (npk) =  40000
     Max angular momentum in pseudopotentials (lmaxx) =  4

     File ./out/aiida.update deleted, as requested

     File ./out/aiida.bfgs deleted, as requested
     Message from routine setup:
     using ibrav=0 with symmetry is DISCOURAGED, use correct ibrav instead

     Subspace diagonalization in iterative solution of the eigenvalue problem:
     a serial algorithm will be used


     G-vector sticks info
     --------------------
     sticks:   dense  smooth     PW     G-vecs:    dense   smooth      PW
     Sum         703     349    109                69899    24741    4271

     Using Slab Decomposition



     bravais-lattice index     =            0
     lattice parameter (alat)  =       6.0288  a.u.
     unit-cell volume          =     885.0514 (a.u.)^3
     number of atoms/cell      =            3
     number of atomic types    =            2
     number of electrons       =        26.00
     number of Kohn-Sham states=           17
     kinetic-energy cutoff     =      35.0000  Ry
     charge density cutoff     =     280.0000  Ry
     scf convergence threshold =      6.0E-10
     mixing beta               =       0.4000
     number of iterations used =            8  plain     mixing
     energy convergence thresh.=      3.0E-05
     force convergence thresh. =      1.0E-04
     Exchange-correlation= SLA  PW   PSX  PSC
                           (   1   4  10   8   0   0   0)
     nstep                     =           50


     celldm(1)=   6.028823  celldm(2)=   0.000000  celldm(3)=   0.000000
     celldm(4)=   0.000000  celldm(5)=   0.000000  celldm(6)=   0.000000

     crystal axes: (cart. coord. in units of alat)
               a(1) = (   1.000000   0.000000   0.000000 )  
               a(2) = (  -0.500000   0.866025   0.000000 )  
               a(3) = (   0.000000   0.000000   4.663803 )  

     reciprocal axes: (cart. coord. in units 2 pi/alat)
               b(1) = (  1.000000  0.577350 -0.000000 )  
               b(2) = (  0.000000  1.154701  0.000000 )  
               b(3) = (  0.000000 -0.000000  0.214417 )  


     PseudoPot. # 1 for Mo read from file:
     ./Mo_ONCV_PBEsol-1.0.upf
     MD5 check sum: 5193ba6a20874d27c2ef80314d1b3445
     Pseudo is Norm-conserving, Zval = 14.0
     Generated using ONCVPSP code by D. R. Hamann
     Using radial grid of 1508 points,  6 beta functions with: 
                l(1) =   0
                l(2) =   0
                l(3) =   1
                l(4) =   1
                l(5) =   2
                l(6) =   2

     PseudoPot. # 2 for S  read from file:
     ./s_pbesol_v1.4.uspp.F.UPF
     MD5 check sum: 0ccfa86ec6eb59065d10aaae963ef2a7
     Pseudo is Ultrasoft + core correction, Zval =  6.0
     Generated by new atomic code, or converted to UPF format
     Using radial grid of  907 points,  6 beta functions with: 
                l(1) =   0
                l(2) =   0
                l(3) =   1
                l(4) =   1
                l(5) =   2
                l(6) =   2
     Q(r) pseudized with  8 coefficients,  rinner =    1.300   1.300   1.300
                                                       1.300   1.300

     atomic species   valence    mass     pseudopotential
     Mo               14.00    95.96000     Mo( 1.00)
     S                 6.00    32.06500     S ( 1.00)

     12 Sym. Ops. (no inversion) found ( 6 have fractional translation)


                                    s                        frac. trans.

      isym =  1     identity                                     

 cryst.   s( 1) = (     1          0          0      )
                  (     0          1          0      )
                  (     0          0          1      )

 cart.    s( 1) = (  1.0000000  0.0000000  0.0000000 )
                  (  0.0000000  1.0000000  0.0000000 )
                  (  0.0000000  0.0000000  1.0000000 )


      isym =  2     180 deg rotation - cart. axis [0,1,0]        

 cryst.   s( 2) = (    -1          0          0      )    f =( -0.0000010 )
                  (     1          1          0      )       (  0.0000000 )
                  (     0          0         -1      )       (  0.5000000 )

 cart.    s( 2) = ( -1.0000000  0.0000000  0.0000000 )    f =( -0.0000010 )
                  (  0.0000000  1.0000000  0.0000000 )       (  0.0000000 )
                  (  0.0000000  0.0000000 -1.0000000 )       (  2.3319013 )


      isym =  3     120 deg rotation - cryst. axis [0,0,1]       

 cryst.   s( 3) = (     0          1          0      )
                  (    -1         -1          0      )
                  (     0          0          1      )

 cart.    s( 3) = ( -0.5000000 -0.8660254  0.0000000 )
                  (  0.8660254 -0.5000000  0.0000000 )
                  (  0.0000000  0.0000000  1.0000000 )


      isym =  4     120 deg rotation - cryst. axis [0,0,-1]      

 cryst.   s( 4) = (    -1         -1          0      )
                  (     1          0          0      )
                  (     0          0          1      )

 cart.    s( 4) = ( -0.5000000  0.8660254  0.0000000 )
                  ( -0.8660254 -0.5000000  0.0000000 )
                  (  0.0000000  0.0000000  1.0000000 )


      isym =  5     180 deg rotation - cryst. axis [1,-1,0]      

 cryst.   s( 5) = (     0         -1          0      )    f =(  0.0000000 )
                  (    -1          0          0      )       (  0.0000000 )
                  (     0          0         -1      )       (  0.5000000 )

 cart.    s( 5) = (  0.5000000 -0.8660254  0.0000000 )    f =(  0.0000000 )
                  ( -0.8660254 -0.5000000  0.0000000 )       (  0.0000000 )
                  (  0.0000000  0.0000000 -1.0000000 )       (  2.3319013 )


      isym =  6     180 deg rotation - cryst. axis [2,1,0]       

 cryst.   s( 6) = (     1          1          0      )    f =(  0.0000000 )
                  (     0         -1          0      )       (  0.0000010 )
                  (     0          0         -1      )       (  0.5000000 )

 cart.    s( 6) = (  0.5000000  0.8660254  0.0000000 )    f =( -0.0000005 )
                  (  0.8660254 -0.5000000  0.0000000 )       (  0.0000009 )
                  (  0.0000000  0.0000000 -1.0000000 )       (  2.3319013 )


      isym =  7     inv. 180 deg rotation - cart. axis [0,0,1]   

 cryst.   s( 7) = (     1          0          0      )    f =(  0.0000000 )
                  (     0          1          0      )       (  0.0000000 )
                  (     0          0         -1      )       (  0.5000000 )

 cart.    s( 7) = (  1.0000000  0.0000000  0.0000000 )    f =(  0.0000000 )
                  (  0.0000000  1.0000000  0.0000000 )       (  0.0000000 )
                  (  0.0000000  0.0000000 -1.0000000 )       (  2.3319013 )


      isym =  8     inv. 180 deg rotation - cart. axis [1,0,0]   

 cryst.   s( 8) = (    -1          0          0      )
                  (     1          1          0      )
                  (     0          0          1      )

 cart.    s( 8) = ( -1.0000000  0.0000000  0.0000000 )
                  (  0.0000000  1.0000000  0.0000000 )
                  (  0.0000000  0.0000000  1.0000000 )


      isym =  9     inv.  60 deg rotation - cryst. axis [0,0,1]  

 cryst.   s( 9) = (    -1         -1          0      )    f =( -0.0000010 )
                  (     1          0          0      )       (  0.0000000 )
                  (     0          0         -1      )       (  0.5000000 )

 cart.    s( 9) = ( -0.5000000  0.8660254  0.0000000 )    f =( -0.0000010 )
                  ( -0.8660254 -0.5000000  0.0000000 )       (  0.0000000 )
                  (  0.0000000  0.0000000 -1.0000000 )       (  2.3319013 )


      isym = 10     inv.  60 deg rotation - cryst. axis [0,0,-1] 

 cryst.   s(10) = (     0          1          0      )    f =(  0.0000000 )
                  (    -1         -1          0      )       (  0.0000010 )
                  (     0          0         -1      )       (  0.5000000 )

 cart.    s(10) = ( -0.5000000 -0.8660254  0.0000000 )    f =( -0.0000005 )
                  (  0.8660254 -0.5000000  0.0000000 )       (  0.0000009 )
                  (  0.0000000  0.0000000 -1.0000000 )       (  2.3319013 )


      isym = 11     inv. 180 deg rotation - cryst. axis [0,1,0]  

 cryst.   s(11) = (     1          1          0      )
                  (     0         -1          0      )
                  (     0          0          1      )

 cart.    s(11) = (  0.5000000  0.8660254  0.0000000 )
                  (  0.8660254 -0.5000000  0.0000000 )
                  (  0.0000000  0.0000000  1.0000000 )


      isym = 12     inv. 180 deg rotation - cryst. axis [1,1,0]  

 cryst.   s(12) = (     0         -1          0      )
                  (    -1          0          0      )
                  (     0          0          1      )

 cart.    s(12) = (  0.5000000 -0.8660254  0.0000000 )
                  ( -0.8660254 -0.5000000  0.0000000 )
                  (  0.0000000  0.0000000  1.0000000 )


   Cartesian axes

     site n.     atom                  positions (alat units)
         1        Mo     tau(   1) = (   0.5000005   0.2886748   3.4978519  )
         2        S      tau(   2) = (  -0.0000005   0.5773506   3.0073412  )
         3        S      tau(   3) = (  -0.0000005   0.5773506   3.9883627  )

   Crystallographic axes

     site n.     atom                  positions (cryst. coord.)
         1        Mo     tau(   1) = (  0.6666670  0.3333330  0.7500000  )
         2        S      tau(   2) = (  0.3333330  0.6666670  0.6448260  )
         3        S      tau(   3) = (  0.3333330  0.6666670  0.8551740  )

     number of k points=    60  Marzari-Vanderbilt smearing, width (Ry)=  0.0200
                       cart. coord. in units 2pi/alat
        k(    1) = (   0.0000000   0.0000000   0.0000000), wk =   0.0026042
        k(    2) = (   0.0000000   0.0000000   0.0714724), wk =   0.0052083
        k(    3) = (   0.0000000   0.0721688   0.0000000), wk =   0.0156250
        k(    4) = (   0.0000000   0.0721688   0.0714724), wk =   0.0312500
        k(    5) = (   0.0000000   0.1443376   0.0000000), wk =   0.0156250
        k(    6) = (   0.0000000   0.1443376   0.0714724), wk =   0.0312500
        k(    7) = (   0.0000000   0.2165064   0.0000000), wk =   0.0156250
        k(    8) = (   0.0000000   0.2165064   0.0714724), wk =   0.0312500
        k(    9) = (   0.0000000   0.2886751   0.0000000), wk =   0.0156250
        k(   10) = (   0.0000000   0.2886751   0.0714724), wk =   0.0312500
        k(   11) = (   0.0000000   0.3608439   0.0000000), wk =   0.0156250
        k(   12) = (   0.0000000   0.3608439   0.0714724), wk =   0.0312500
        k(   13) = (   0.0000000   0.4330127   0.0000000), wk =   0.0156250
        k(   14) = (   0.0000000   0.4330127   0.0714724), wk =   0.0312500
        k(   15) = (   0.0000000   0.5051815   0.0000000), wk =   0.0156250
        k(   16) = (   0.0000000   0.5051815   0.0714724), wk =   0.0312500
        k(   17) = (   0.0000000  -0.5773503   0.0000000), wk =   0.0078125
        k(   18) = (   0.0000000  -0.5773503   0.0714724), wk =   0.0156250
        k(   19) = (   0.0625000   0.1082532   0.0000000), wk =   0.0156250
        k(   20) = (   0.0625000   0.1082532   0.0714724), wk =   0.0312500
        k(   21) = (   0.0625000   0.1804220   0.0000000), wk =   0.0312500
        k(   22) = (   0.0625000   0.1804220   0.0714724), wk =   0.0625000
        k(   23) = (   0.0625000   0.2525907   0.0000000), wk =   0.0312500
        k(   24) = (   0.0625000   0.2525907   0.0714724), wk =   0.0625000
        k(   25) = (   0.0625000   0.3247595   0.0000000), wk =   0.0312500
        k(   26) = (   0.0625000   0.3247595   0.0714724), wk =   0.0625000
        k(   27) = (   0.0625000   0.3969283   0.0000000), wk =   0.0312500
        k(   28) = (   0.0625000   0.3969283   0.0714724), wk =   0.0625000
        k(   29) = (   0.0625000   0.4690971   0.0000000), wk =   0.0312500
        k(   30) = (   0.0625000   0.4690971   0.0714724), wk =   0.0625000
        k(   31) = (   0.0625000   0.5412659   0.0000000), wk =   0.0312500
        k(   32) = (   0.0625000   0.5412659   0.0714724), wk =   0.0625000
        k(   33) = (   0.1250000   0.2165064   0.0000000), wk =   0.0156250
        k(   34) = (   0.1250000   0.2165064   0.0714724), wk =   0.0312500
        k(   35) = (   0.1250000   0.2886751   0.0000000), wk =   0.0312500
        k(   36) = (   0.1250000   0.2886751   0.0714724), wk =   0.0625000
        k(   37) = (   0.1250000   0.3608439   0.0000000), wk =   0.0312500
        k(   38) = (   0.1250000   0.3608439   0.0714724), wk =   0.0625000
        k(   39) = (   0.1250000   0.4330127   0.0000000), wk =   0.0312500
        k(   40) = (   0.1250000   0.4330127   0.0714724), wk =   0.0625000
        k(   41) = (   0.1250000   0.5051815   0.0000000), wk =   0.0312500
        k(   42) = (   0.1250000   0.5051815   0.0714724), wk =   0.0625000
        k(   43) = (   0.1250000   0.5773503   0.0000000), wk =   0.0156250
        k(   44) = (   0.1250000   0.5773503   0.0714724), wk =   0.0312500
        k(   45) = (   0.1875000   0.3247595   0.0000000), wk =   0.0156250
        k(   46) = (   0.1875000   0.3247595   0.0714724), wk =   0.0312500
        k(   47) = (   0.1875000   0.3969283   0.0000000), wk =   0.0312500
        k(   48) = (   0.1875000   0.3969283   0.0714724), wk =   0.0625000
        k(   49) = (   0.1875000   0.4690971   0.0000000), wk =   0.0312500
        k(   50) = (   0.1875000   0.4690971   0.0714724), wk =   0.0625000
        k(   51) = (   0.1875000   0.5412659   0.0000000), wk =   0.0312500
        k(   52) = (   0.1875000   0.5412659   0.0714724), wk =   0.0625000
        k(   53) = (   0.2500000   0.4330127   0.0000000), wk =   0.0156250
        k(   54) = (   0.2500000   0.4330127   0.0714724), wk =   0.0312500
        k(   55) = (   0.2500000   0.5051815   0.0000000), wk =   0.0312500
        k(   56) = (   0.2500000   0.5051815   0.0714724), wk =   0.0625000
        k(   57) = (   0.2500000   0.5773503   0.0000000), wk =   0.0156250
        k(   58) = (   0.2500000   0.5773503   0.0714724), wk =   0.0312500
        k(   59) = (   0.3125000   0.5412659   0.0000000), wk =   0.0156250
        k(   60) = (   0.3125000   0.5412659   0.0714724), wk =   0.0312500

                       cryst. coord.
        k(    1) = (   0.0000000   0.0000000   0.0000000), wk =   0.0026042
        k(    2) = (   0.0000000   0.0000000   0.3333333), wk =   0.0052083
        k(    3) = (   0.0000000   0.0625000   0.0000000), wk =   0.0156250
        k(    4) = (   0.0000000   0.0625000   0.3333333), wk =   0.0312500
        k(    5) = (   0.0000000   0.1250000   0.0000000), wk =   0.0156250
        k(    6) = (   0.0000000   0.1250000   0.3333333), wk =   0.0312500
        k(    7) = (   0.0000000   0.1875000   0.0000000), wk =   0.0156250
        k(    8) = (   0.0000000   0.1875000   0.3333333), wk =   0.0312500
        k(    9) = (   0.0000000   0.2500000   0.0000000), wk =   0.0156250
        k(   10) = (   0.0000000   0.2500000   0.3333333), wk =   0.0312500
        k(   11) = (   0.0000000   0.3125000   0.0000000), wk =   0.0156250
        k(   12) = (   0.0000000   0.3125000   0.3333333), wk =   0.0312500
        k(   13) = (   0.0000000   0.3750000   0.0000000), wk =   0.0156250
        k(   14) = (   0.0000000   0.3750000   0.3333333), wk =   0.0312500
        k(   15) = (   0.0000000   0.4375000   0.0000000), wk =   0.0156250
        k(   16) = (   0.0000000   0.4375000   0.3333333), wk =   0.0312500
        k(   17) = (   0.0000000  -0.5000000   0.0000000), wk =   0.0078125
        k(   18) = (   0.0000000  -0.5000000   0.3333333), wk =   0.0156250
        k(   19) = (   0.0625000   0.0625000   0.0000000), wk =   0.0156250
        k(   20) = (   0.0625000   0.0625000   0.3333333), wk =   0.0312500
        k(   21) = (   0.0625000   0.1250000   0.0000000), wk =   0.0312500
        k(   22) = (   0.0625000   0.1250000   0.3333333), wk =   0.0625000
        k(   23) = (   0.0625000   0.1875000   0.0000000), wk =   0.0312500
        k(   24) = (   0.0625000   0.1875000   0.3333333), wk =   0.0625000
        k(   25) = (   0.0625000   0.2500000   0.0000000), wk =   0.0312500
        k(   26) = (   0.0625000   0.2500000   0.3333333), wk =   0.0625000
        k(   27) = (   0.0625000   0.3125000   0.0000000), wk =   0.0312500
        k(   28) = (   0.0625000   0.3125000   0.3333333), wk =   0.0625000
        k(   29) = (   0.0625000   0.3750000   0.0000000), wk =   0.0312500
        k(   30) = (   0.0625000   0.3750000   0.3333333), wk =   0.0625000
        k(   31) = (   0.0625000   0.4375000   0.0000000), wk =   0.0312500
        k(   32) = (   0.0625000   0.4375000   0.3333333), wk =   0.0625000
        k(   33) = (   0.1250000   0.1250000   0.0000000), wk =   0.0156250
        k(   34) = (   0.1250000   0.1250000   0.3333333), wk =   0.0312500
        k(   35) = (   0.1250000   0.1875000   0.0000000), wk =   0.0312500
        k(   36) = (   0.1250000   0.1875000   0.3333333), wk =   0.0625000
        k(   37) = (   0.1250000   0.2500000   0.0000000), wk =   0.0312500
        k(   38) = (   0.1250000   0.2500000   0.3333333), wk =   0.0625000
        k(   39) = (   0.1250000   0.3125000   0.0000000), wk =   0.0312500
        k(   40) = (   0.1250000   0.3125000   0.3333333), wk =   0.0625000
        k(   41) = (   0.1250000   0.3750000   0.0000000), wk =   0.0312500
        k(   42) = (   0.1250000   0.3750000   0.3333333), wk =   0.0625000
        k(   43) = (   0.1250000   0.4375000   0.0000000), wk =   0.0156250
        k(   44) = (   0.1250000   0.4375000   0.3333333), wk =   0.0312500
        k(   45) = (   0.1875000   0.1875000   0.0000000), wk =   0.0156250
        k(   46) = (   0.1875000   0.1875000   0.3333333), wk =   0.0312500
        k(   47) = (   0.1875000   0.2500000   0.0000000), wk =   0.0312500
        k(   48) = (   0.1875000   0.2500000   0.3333333), wk =   0.0625000
        k(   49) = (   0.1875000   0.3125000   0.0000000), wk =   0.0312500
        k(   50) = (   0.1875000   0.3125000   0.3333333), wk =   0.0625000
        k(   51) = (   0.1875000   0.3750000   0.0000000), wk =   0.0312500
        k(   52) = (   0.1875000   0.3750000   0.3333333), wk =   0.0625000
        k(   53) = (   0.2500000   0.2500000   0.0000000), wk =   0.0156250
        k(   54) = (   0.2500000   0.2500000   0.3333333), wk =   0.0312500
        k(   55) = (   0.2500000   0.3125000   0.0000000), wk =   0.0312500
        k(   56) = (   0.2500000   0.3125000   0.3333333), wk =   0.0625000
        k(   57) = (   0.2500000   0.3750000   0.0000000), wk =   0.0156250
        k(   58) = (   0.2500000   0.3750000   0.3333333), wk =   0.0312500
        k(   59) = (   0.3125000   0.3125000   0.0000000), wk =   0.0156250
        k(   60) = (   0.3125000   0.3125000   0.3333333), wk =   0.0312500

     Dense  grid:    69899 G-vectors     FFT dimensions: (  36,  36, 150)

     Smooth grid:    24741 G-vectors     FFT dimensions: (  24,  24, 108)

     Dynamical RAM for                 wfc:       0.80 MB

     Dynamical RAM for     wfc (w. buffer):      48.97 MB

     Dynamical RAM for           str. fact:       2.13 MB

     Dynamical RAM for           local pot:       0.00 MB

     Dynamical RAM for          nlocal pot:       2.55 MB

     Dynamical RAM for                qrad:       2.69 MB

     Dynamical RAM for          rho,v,vnew:       7.65 MB

     Dynamical RAM for               rhoin:       2.55 MB

     Dynamical RAM for            rho*nmix:      17.07 MB

     Dynamical RAM for           G-vectors:       4.19 MB

     Dynamical RAM for          h,s,v(r/c):       0.05 MB

     Dynamical RAM for          <psi|beta>:       0.01 MB

     Dynamical RAM for                 psi:       1.61 MB

     Dynamical RAM for                hpsi:       1.61 MB

     Dynamical RAM for                spsi:       1.61 MB

     Dynamical RAM for      wfcinit/wfcrot:       1.71 MB

     Dynamical RAM for           addusdens:     200.52 MB

     Dynamical RAM for          addusforce:     203.19 MB

     Dynamical RAM for         addusstress:     214.38 MB

     Estimated static dynamical RAM per process >      81.35 MB

     Estimated max dynamical RAM per process >     312.79 MB

     Initial potential from superposition of free atoms

     starting charge      25.9990, renormalised to      26.0000

     negative rho (up, down):  2.650E-06 0.000E+00
     Starting wfcs are   18 randomized atomic wfcs

     total cpu time spent up to now is        4.0 secs

     Self-consistent Calculation

     iteration #  1     ecut=    35.00 Ry     beta= 0.40
     Davidson diagonalization with overlap

---- Real-time Memory Report at c_bands before calling an iterative solver
           268 MiB given to the printing process from OS
             0 MiB allocation reported by mallinfo(arena+hblkhd)
         24387 MiB available memory on the node where the printing process lives
------------------
     ethr =  1.00E-02,  avg # of iterations =  2.1

     Threshold (ethr) on eigenvalues was too large:
     Diagonalizing with lowered threshold

     Davidson diagonalization with overlap

---- Real-time Memory Report at c_bands before calling an iterative solver
           326 MiB given to the printing process from OS
             0 MiB allocation reported by mallinfo(arena+hblkhd)
         24406 MiB available memory on the node where the printing process lives
------------------
     ethr =  3.11E-04,  avg # of iterations =  2.7

     negative rho (up, down):  3.990E-06 0.000E+00

     total cpu time spent up to now is       18.1 secs

     WARNING: integrated charge=    26.00002210, expected=    26.00000000

     total energy              =    -185.35681071 Ry
     estimated scf accuracy    <       0.10731914 Ry

     iteration #  2     ecut=    35.00 Ry     beta= 0.40
     Davidson diagonalization with overlap

---- Real-time Memory Report at c_bands before calling an iterative solver
           336 MiB given to the printing process from OS
             0 MiB allocation reported by mallinfo(arena+hblkhd)
         24291 MiB available memory on the node where the printing process lives
------------------
     ethr =  4.13E-04,  avg # of iterations =  2.0

     negative rho (up, down):  6.229E-06 0.000E+00

     total cpu time spent up to now is       25.3 secs

     WARNING: integrated charge=    26.00001683, expected=    26.00000000

     total energy              =    -185.36276724 Ry
     estimated scf accuracy    <       0.06122071 Ry

     iteration #  3     ecut=    35.00 Ry     beta= 0.40
     Davidson diagonalization with overlap

---- Real-time Memory Report at c_bands before calling an iterative solver
           337 MiB given to the printing process from OS
             0 MiB allocation reported by mallinfo(arena+hblkhd)
         24312 MiB available memory on the node where the printing process lives
------------------
     ethr =  2.35E-04,  avg # of iterations =  2.0

     negative rho (up, down):  6.847E-06 0.000E+00

     total cpu time spent up to now is       31.6 secs

     WARNING: integrated charge=    26.00001109, expected=    26.00000000

     total energy              =    -185.37353188 Ry
     estimated scf accuracy    <       0.01592173 Ry

     iteration #  4     ecut=    35.00 Ry     beta= 0.40
     Davidson diagonalization with overlap

---- Real-time Memory Report at c_bands before calling an iterative solver
           338 MiB given to the printing process from OS
             0 MiB allocation reported by mallinfo(arena+hblkhd)
         24205 MiB available memory on the node where the printing process lives
------------------
     ethr =  6.12E-05,  avg # of iterations =  1.0

     negative rho (up, down):  7.858E-06 0.000E+00

     total cpu time spent up to now is       37.7 secs

     WARNING: integrated charge=    26.00000320, expected=    26.00000000

     total energy              =    -185.37504094 Ry
     estimated scf accuracy    <       0.00100568 Ry

     iteration #  5     ecut=    35.00 Ry     beta= 0.40
     Davidson diagonalization with overlap

---- Real-time Memory Report at c_bands before calling an iterative solver
           338 MiB given to the printing process from OS
             0 MiB allocation reported by mallinfo(arena+hblkhd)
         24247 MiB available memory on the node where the printing process lives
------------------
     ethr =  3.87E-06,  avg # of iterations =  2.8

     negative rho (up, down):  7.977E-06 0.000E+00

     total cpu time spent up to now is       45.1 secs

     total energy              =    -185.37517459 Ry
     estimated scf accuracy    <       0.00016644 Ry

     iteration #  6     ecut=    35.00 Ry     beta= 0.40
     Davidson diagonalization with overlap

---- Real-time Memory Report at c_bands before calling an iterative solver
           339 MiB given to the printing process from OS
             0 MiB allocation reported by mallinfo(arena+hblkhd)
         24204 MiB available memory on the node where the printing process lives
------------------
     ethr =  6.40E-07,  avg # of iterations =  2.0

     negative rho (up, down):  8.087E-06 0.000E+00

     total cpu time spent up to now is       52.1 secs

     total energy              =    -185.37521668 Ry
     estimated scf accuracy    <       0.00001728 Ry

     iteration #  7     ecut=    35.00 Ry     beta= 0.40
     Davidson diagonalization with overlap

---- Real-time Memory Report at c_bands before calling an iterative solver
           340 MiB given to the printing process from OS
             0 MiB allocation reported by mallinfo(arena+hblkhd)
         24295 MiB available memory on the node where the printing process lives
------------------
     ethr =  6.64E-08,  avg # of iterations =  2.3

     negative rho (up, down):  8.128E-06 0.000E+00

     total cpu time spent up to now is       58.9 secs

     total energy              =    -185.37521948 Ry
     estimated scf accuracy    <       0.00000109 Ry

     iteration #  8     ecut=    35.00 Ry     beta= 0.40
     Davidson diagonalization with overlap

---- Real-time Memory Report at c_bands before calling an iterative solver
           340 MiB given to the printing process from OS
             0 MiB allocation reported by mallinfo(arena+hblkhd)
         24320 MiB available memory on the node where the printing process lives
------------------
     ethr =  4.19E-09,  avg # of iterations =  4.7

     negative rho (up, down):  8.164E-06 0.000E+00

     total cpu time spent up to now is       68.3 secs

     total energy              =    -185.37522025 Ry
     estimated scf accuracy    <       0.00000042 Ry

     iteration #  9     ecut=    35.00 Ry     beta= 0.40
     Davidson diagonalization with overlap

---- Real-time Memory Report at c_bands before calling an iterative solver
           342 MiB given to the printing process from OS
             0 MiB allocation reported by mallinfo(arena+hblkhd)
         24314 MiB available memory on the node where the printing process lives
------------------
     ethr =  1.63E-09,  avg # of iterations =  2.0

     negative rho (up, down):  8.218E-06 0.000E+00

     total cpu time spent up to now is       75.5 secs

     total energy              =    -185.37522034 Ry
     estimated scf accuracy    <       0.00000002 Ry

     iteration # 10     ecut=    35.00 Ry     beta= 0.40
     Davidson diagonalization with overlap

---- Real-time Memory Report at c_bands before calling an iterative solver
           342 MiB given to the printing process from OS
             0 MiB allocation reported by mallinfo(arena+hblkhd)
         24288 MiB available memory on the node where the printing process lives
------------------
     ethr =  6.40E-11,  avg # of iterations =  3.4

     negative rho (up, down):  8.243E-06 0.000E+00

     total cpu time spent up to now is       83.9 secs

     total energy              =    -185.37522035 Ry
     estimated scf accuracy    <          4.9E-09 Ry

     iteration # 11     ecut=    35.00 Ry     beta= 0.40
     Davidson diagonalization with overlap

---- Real-time Memory Report at c_bands before calling an iterative solver
           342 MiB given to the printing process from OS
             0 MiB allocation reported by mallinfo(arena+hblkhd)
         24304 MiB available memory on the node where the printing process lives
------------------
     ethr =  1.89E-11,  avg # of iterations =  2.2

     negative rho (up, down):  8.295E-06 0.000E+00

     total cpu time spent up to now is       91.0 secs

     End of self-consistent calculation

          k = 0.0000 0.0000 0.0000 (  3089 PWs)   bands (ev):

   -60.1418 -34.3068 -34.1031 -34.1031 -13.3986 -12.0909  -4.9599  -1.9632
    -1.9632  -1.1059  -0.8536  -0.8535   0.6463   3.3898   3.3899   3.6434
     3.6434

     occupation numbers 
     1.0000   1.0000   1.0000   1.0000   1.0000   1.0000   1.0000   1.0000
     1.0000   1.0000   1.0000   1.0000   1.0000   0.0000   0.0000   0.0000
     0.0000

          k = 0.0000 0.0000 0.0715 (  3095 PWs)   bands (ev):

   -60.1418 -34.3068 -34.1031 -34.1031 -13.3986 -12.0909  -4.9599  -1.9632
    -1.9632  -1.1059  -0.8536  -0.8535   0.6463   3.3898   3.3899   3.6434
     3.6434

     occupation numbers 
     1.0000   1.0000   1.0000   1.0000   1.0000   1.0000   1.0000   1.0000
     1.0000   1.0000   1.0000   1.0000   1.0000   0.0000   0.0000   0.0000
     0.0000

          k = 0.0000 0.0722 0.0000 (  3101 PWs)   bands (ev):

   -60.1404 -34.3040 -34.1174 -34.1063 -13.3409 -12.0671  -4.8931  -2.0964
    -1.9025  -1.4493  -0.9478  -0.5953   0.6183   3.3000   3.4746   3.4934
     3.5763

     occupation numbers 
     1.0000   1.0000   1.0000   1.0000   1.0000   1.0000   1.0000   1.0000
     1.0000   1.0000   1.0000   1.0000   1.0000   0.0000   0.0000   0.0000
     0.0000

          k = 0.0000 0.0722 0.0715 (  3103 PWs)   bands (ev):

   -60.1404 -34.3040 -34.1174 -34.1063 -13.3409 -12.0671  -4.8931  -2.0964
    -1.9025  -1.4493  -0.9478  -0.5953   0.6184   3.3000   3.4747   3.4934
     3.5763

     occupation numbers 
     1.0000   1.0000   1.0000   1.0000   1.0000   1.0000   1.0000   1.0000
     1.0000   1.0000   1.0000   1.0000   1.0000   0.0000   0.0000   0.0000
     0.0000

          k = 0.0000 0.1443 0.0000 (  3102 PWs)   bands (ev):

   -60.1365 -34.2961 -34.1580 -34.1156 -13.1727 -11.9977  -4.7087  -2.4396
    -1.9241  -1.7274  -1.1921  -0.4128   0.5052   3.1298   3.1739   3.4021
     3.7580

     occupation numbers 
     1.0000   1.0000   1.0000   1.0000   1.0000   1.0000   1.0000   1.0000
     1.0000   1.0000   1.0000   1.0000   1.0000   0.0000   0.0000   0.0000
     0.0000

          k = 0.0000 0.1443 0.0715 (  3110 PWs)   bands (ev):

   -60.1365 -34.2961 -34.1580 -34.1156 -13.1727 -11.9977  -4.7087  -2.4396
    -1.9241  -1.7274  -1.1921  -0.4128   0.5052   3.1299   3.1739   3.4021
     3.7580

     occupation numbers 
     1.0000   1.0000   1.0000   1.0000   1.0000   1.0000   1.0000   1.0000
     1.0000   1.0000   1.0000   1.0000   1.0000   0.0000   0.0000   0.0000
     0.0000

          k = 0.0000 0.2165 0.0000 (  3098 PWs)   bands (ev):

   -60.1305 -34.2842 -34.2182 -34.1294 -12.9092 -11.8892  -4.4693  -2.8587
    -2.4168  -1.5085  -1.4598  -0.4580   0.2561   2.8667   3.1837   3.2329
     4.0880

     occupation numbers 
     1.0000   1.0000   1.0000   1.0000   1.0000   1.0000   1.0000   1.0000
     1.0000   1.0000   1.0000   1.0000   1.0000   0.0000   0.0000   0.0000
     0.0000

          k = 0.0000 0.2165 0.0715 (  3117 PWs)   bands (ev):

   -60.1305 -34.2842 -34.2182 -34.1294 -12.9092 -11.8892  -4.4693  -2.8587
    -2.4168  -1.5085  -1.4598  -0.4580   0.2561   2.8668   3.1837   3.2328
     4.0880

     occupation numbers 
     1.0000   1.0000   1.0000   1.0000   1.0000   1.0000   1.0000   1.0000
     1.0000   1.0000   1.0000   1.0000   1.0000   0.0000   0.0000   0.0000
     0.0000

          k = 0.0000 0.2887 0.0000 (  3104 PWs)   bands (ev):

   -60.1235 -34.2884 -34.2701 -34.1456 -12.5766 -11.7533  -4.3361  -3.1693
    -2.9105  -1.8297  -1.1377  -0.6623  -0.0804   2.8058   2.9868   3.5074
     4.3989

     occupation numbers 
     1.0000   1.0000   1.0000   1.0000   1.0000   1.0000   1.0000   1.0000
     1.0000   1.0000   1.0000   1.0000   1.0000   0.0000   0.0000   0.0000
     0.0000

          k = 0.0000 0.2887 0.0715 (  3109 PWs)   bands (ev):

   -60.1235 -34.2884 -34.2701 -34.1456 -12.5766 -11.7533  -4.3361  -3.1693
    -2.9105  -1.8297  -1.1377  -0.6623  -0.0804   2.8059   2.9867   3.5073
     4.3989

     occupation numbers 
     1.0000   1.0000   1.0000   1.0000   1.0000   1.0000   1.0000   1.0000
     1.0000   1.0000   1.0000   1.0000   1.0000   0.0000   0.0000   0.0000
     0.0000

          k = 0.0000 0.3608 0.0000 (  3106 PWs)   bands (ev):

   -60.1165 -34.3579 -34.2560 -34.1618 -12.2137 -11.6071  -4.4900  -3.3779
    -3.2456  -2.1114  -0.8919  -0.8143  -0.3121   2.8603   2.9095   3.8757
     4.6428

     occupation numbers 
     1.0000   1.0000   1.0000   1.0000   1.0000   1.0000   1.0000   1.0000
     1.0000   1.0000   1.0000   1.0000   1.0000   0.0000   0.0000   0.0000
     0.0000

          k = 0.0000 0.3608 0.0715 (  3097 PWs)   bands (ev):

   -60.1165 -34.3579 -34.2560 -34.1618 -12.2137 -11.6070  -4.4900  -3.3779
    -3.2456  -2.1114  -0.8919  -0.8143  -0.3121   2.8603   2.9095   3.8756
     4.6428

     occupation numbers 
     1.0000   1.0000   1.0000   1.0000   1.0000   1.0000   1.0000   1.0000
     1.0000   1.0000   1.0000   1.0000   1.0000   0.0000   0.0000   0.0000
     0.0000

          k = 0.0000 0.4330 0.0000 (  3092 PWs)   bands (ev):

   -60.1106 -34.4162 -34.2440 -34.1755 -11.8743 -11.4735  -4.7872  -3.7715
    -3.2814  -2.3273  -1.0684  -0.5474  -0.2872   2.8215   3.0950   4.2037
     4.8063

     occupation numbers 
     1.0000   1.0000   1.0000   1.0000   1.0000   1.0000   1.0000   1.0000
     1.0000   1.0000   1.0000   1.0000   1.0000   0.0000   0.0000   0.0000
     0.0000

          k = 0.0000 0.4330 0.0715 (  3095 PWs)   bands (ev):

   -60.1106 -34.4162 -34.2440 -34.1755 -11.8743 -11.4735  -4.7872  -3.7715
    -3.2814  -2.3273  -1.0684  -0.5474  -0.2871   2.8215   3.0950   4.2036
     4.8063

     occupation numbers 
     1.0000   1.0000   1.0000   1.0000   1.0000   1.0000   1.0000   1.0000
     1.0000   1.0000   1.0000   1.0000   1.0000   0.0000   0.0000   0.0000
     0.0000

          k = 0.0000 0.5052 0.0000 (  3102 PWs)   bands (ev):

   -60.1066 -34.4549 -34.2360 -34.1846 -11.6260 -11.3785  -5.0311  -4.0368
    -3.3651  -2.4620  -1.1718  -0.3788  -0.1021   2.8412   3.2839   4.4072
     4.8965

     occupation numbers 
     1.0000   1.0000   1.0000   1.0000   1.0000   1.0000   1.0000   1.0000
     1.0000   1.0000   1.0000   1.0000   1.0000   0.0000   0.0000   0.0000
     0.0000

          k = 0.0000 0.5052 0.0715 (  3099 PWs)   bands (ev):

   -60.1066 -34.4549 -34.2360 -34.1846 -11.6260 -11.3785  -5.0311  -4.0368
    -3.3651  -2.4620  -1.1718  -0.3788  -0.1021   2.8412   3.2839   4.4072
     4.8965

     occupation numbers 
     1.0000   1.0000   1.0000   1.0000   1.0000   1.0000   1.0000   1.0000
     1.0000   1.0000   1.0000   1.0000   1.0000   0.0000   0.0000   0.0000
     0.0000

          k = 0.0000-0.5774 0.0000 (  3092 PWs)   bands (ev):

   -60.1052 -34.4685 -34.2332 -34.1878 -11.5337 -11.3439  -5.1236  -4.1306
    -3.4086  -2.5077  -1.2051  -0.3224  -0.0001   2.8588   3.3719   4.4718
     4.9250

     occupation numbers 
     1.0000   1.0000   1.0000   1.0000   1.0000   1.0000   1.0000   1.0000
     1.0000   1.0000   1.0000   1.0000   1.0000   0.0000   0.0000   0.0000
     0.0000

          k = 0.0000-0.5774 0.0715 (  3098 PWs)   bands (ev):

   -60.1052 -34.4685 -34.2332 -34.1878 -11.5337 -11.3439  -5.1236  -4.1306
    -3.4086  -2.5077  -1.2051  -0.3224  -0.0001   2.8588   3.3719   4.4718
     4.9250

     occupation numbers 
     1.0000   1.0000   1.0000   1.0000   1.0000   1.0000   1.0000   1.0000
     1.0000   1.0000   1.0000   1.0000   1.0000   0.0000   0.0000   0.0000
     0.0000

          k = 0.0625 0.1083 0.0000 (  3105 PWs)   bands (ev):

   -60.1377 -34.2986 -34.1444 -34.1130 -13.2279 -12.0205  -4.7669  -2.3324
    -1.7867  -1.7798  -1.1566  -0.4099   0.5478   3.1745   3.2273   3.4486
     3.6934

     occupation numbers 
     1.0000   1.0000   1.0000   1.0000   1.0000   1.0000   1.0000   1.0000
     1.0000   1.0000   1.0000   1.0000   1.0000   0.0000   0.0000   0.0000
     0.0000

          k = 0.0625 0.1083 0.0715 (  3107 PWs)   bands (ev):

   -60.1377 -34.2986 -34.1444 -34.1130 -13.2279 -12.0205  -4.7669  -2.3324
    -1.7867  -1.7798  -1.1566  -0.4099   0.5479   3.1745   3.2275   3.4486
     3.6934

     occupation numbers 
     1.0000   1.0000   1.0000   1.0000   1.0000   1.0000   1.0000   1.0000
     1.0000   1.0000   1.0000   1.0000   1.0000   0.0000   0.0000   0.0000
     0.0000

          k = 0.0625 0.1804 0.0000 (  3107 PWs)   bands (ev):

   -60.1328 -34.2887 -34.1937 -34.1257 -13.0119 -11.9313  -4.5494  -2.7072
    -2.1962  -1.5750  -1.5116  -0.3213   0.3646   2.9322   3.1081   3.2511
     4.0182

     occupation numbers 
     1.0000   1.0000   1.0000   1.0000   1.0000   1.0000   1.0000   1.0000
     1.0000   1.0000   1.0000   1.0000   1.0000   0.0000   0.0000   0.0000
     0.0000

          k = 0.0625 0.1804 0.0715 (  3114 PWs)   bands (ev):

   -60.1328 -34.2887 -34.1937 -34.1257 -13.0119 -11.9313  -4.5495  -2.7072
    -2.1962  -1.5750  -1.5116  -0.3213   0.3646   2.9324   3.1080   3.2511
     4.0181

     occupation numbers 
     1.0000   1.0000   1.0000   1.0000   1.0000   1.0000   1.0000   1.0000
     1.0000   1.0000   1.0000   1.0000   1.0000   0.0000   0.0000   0.0000
     0.0000

          k = 0.0625 0.2526 0.0000 (  3105 PWs)   bands (ev):

   -60.1263 -34.2757 -34.2574 -34.1422 -12.7133 -11.8085  -4.3446  -3.0657
    -2.6581  -1.8718  -1.3088  -0.4293   0.0652   2.7528   3.0804   3.2545
     4.3563

     occupation numbers 
     1.0000   1.0000   1.0000   1.0000   1.0000   1.0000   1.0000   1.0000
     1.0000   1.0000   1.0000   1.0000   1.0000   0.0000   0.0000   0.0000
     0.0000

          k = 0.0625 0.2526 0.0715 (  3104 PWs)   bands (ev):

   -60.1263 -34.2757 -34.2574 -34.1422 -12.7133 -11.8085  -4.3446  -3.0657
    -2.6581  -1.8718  -1.3088  -0.4293   0.0652   2.7529   3.0804   3.2544
     4.3563

     occupation numbers 
     1.0000   1.0000   1.0000   1.0000   1.0000   1.0000   1.0000   1.0000
     1.0000   1.0000   1.0000   1.0000   1.0000   0.0000   0.0000   0.0000
     0.0000

          k = 0.0625 0.3248 0.0000 (  3108 PWs)   bands (ev):

   -60.1193 -34.3256 -34.2617 -34.1600 -12.3640 -11.6661  -4.3582  -3.2194
    -3.1478  -2.1532  -1.0625  -0.6592  -0.2007   2.7131   3.0131   3.5735
     4.6320

     occupation numbers 
     1.0000   1.0000   1.0000   1.0000   1.0000   1.0000   1.0000   1.0000
     1.0000   1.0000   1.0000   1.0000   1.0000   0.0000   0.0000   0.0000
     0.0000

          k = 0.0625 0.3248 0.0715 (  3096 PWs)   bands (ev):

   -60.1193 -34.3256 -34.2617 -34.1600 -12.3640 -11.6661  -4.3582  -3.2194
    -3.1478  -2.1532  -1.0625  -0.6592  -0.2007   2.7131   3.0131   3.5735
     4.6320

     occupation numbers 
     1.0000   1.0000   1.0000   1.0000   1.0000   1.0000   1.0000   1.0000
     1.0000   1.0000   1.0000   1.0000   1.0000   0.0000   0.0000   0.0000
     0.0000

          k = 0.0625 0.3969 0.0000 (  3094 PWs)   bands (ev):

   -60.1128 -34.3880 -34.2486 -34.1765 -12.0099 -11.5241  -4.6070  -3.6054
    -3.2290  -2.3431  -0.9003  -0.9002  -0.2232   2.7633   3.0671   3.9432
     4.8013

     occupation numbers 
     1.0000   1.0000   1.0000   1.0000   1.0000   1.0000   1.0000   1.0000
     1.0000   1.0000   1.0000   1.0000   1.0000   0.0000   0.0000   0.0000
     0.0000

          k = 0.0625 0.3969 0.0715 (  3088 PWs)   bands (ev):

   -60.1128 -34.3880 -34.2486 -34.1765 -12.0099 -11.5241  -4.6070  -3.6054
    -3.2290  -2.3431  -0.9003  -0.9002  -0.2232   2.7633   3.0672   3.9431
     4.8013

     occupation numbers 
     1.0000   1.0000   1.0000   1.0000   1.0000   1.0000   1.0000   1.0000
     1.0000   1.0000   1.0000   1.0000   1.0000   0.0000   0.0000   0.0000
     0.0000

          k = 0.0625 0.4691 0.0000 (  3099 PWs)   bands (ev):

   -60.1079 -34.4354 -34.2386 -34.1890 -11.7118 -11.4073  -4.8785  -3.9590
    -3.2966  -2.4570  -1.0848  -0.7606  -0.0555   2.8383   3.2126   4.2692
     4.8447

     occupation numbers 
     1.0000   1.0000   1.0000   1.0000   1.0000   1.0000   1.0000   1.0000
     1.0000   1.0000   1.0000   1.0000   1.0000   0.0000   0.0000   0.0000
     0.0000

          k = 0.0625 0.4691 0.0715 (  3093 PWs)   bands (ev):

   -60.1079 -34.4354 -34.2386 -34.1890 -11.7118 -11.4073  -4.8785  -3.9590
    -3.2966  -2.4570  -1.0848  -0.7606  -0.0555   2.8383   3.2126   4.2692
     4.8447

     occupation numbers 
     1.0000   1.0000   1.0000   1.0000   1.0000   1.0000   1.0000   1.0000
     1.0000   1.0000   1.0000   1.0000   1.0000   0.0000   0.0000   0.0000
     0.0000

          k = 0.0625 0.5413 0.0000 (  3100 PWs)   bands (ev):

   -60.1052 -34.4608 -34.2332 -34.1958 -11.5379 -11.3408  -5.0441  -4.1515
    -3.3762  -2.5098  -1.1824  -0.6618   0.1072   2.8723   3.3676   4.4989
     4.7876

     occupation numbers 
     1.0000   1.0000   1.0000   1.0000   1.0000   1.0000   1.0000   1.0000
     1.0000   1.0000   1.0000   1.0000   1.0000   0.0000   0.0000   0.0000
     0.0000

          k = 0.0625 0.5413 0.0715 (  3103 PWs)   bands (ev):

   -60.1052 -34.4608 -34.2332 -34.1958 -11.5379 -11.3408  -5.0441  -4.1515
    -3.3762  -2.5098  -1.1824  -0.6618   0.1072   2.8723   3.3676   4.4989
     4.7876

     occupation numbers 
     1.0000   1.0000   1.0000   1.0000   1.0000   1.0000   1.0000   1.0000
     1.0000   1.0000   1.0000   1.0000   1.0000   0.0000   0.0000   0.0000
     0.0000

          k = 0.1250 0.2165 0.0000 (  3113 PWs)   bands (ev):

   -60.1273 -34.2777 -34.2445 -34.1430 -12.7603 -11.8274  -4.3515  -3.0135
    -2.4930  -2.0114  -1.3868  -0.2689   0.1238   2.7253   3.0985   3.1123
     4.3743

     occupation numbers 
     1.0000   1.0000   1.0000   1.0000   1.0000   1.0000   1.0000   1.0000
     1.0000   1.0000   1.0000   1.0000   1.0000   0.0000   0.0000   0.0000
     0.0000

          k = 0.1250 0.2165 0.0715 (  3112 PWs)   bands (ev):

   -60.1273 -34.2777 -34.2445 -34.1430 -12.7603 -11.8274  -4.3515  -3.0135
    -2.4930  -2.0114  -1.3868  -0.2689   0.1238   2.7254   3.0984   3.1123
     4.3742

     occupation numbers 
     1.0000   1.0000   1.0000   1.0000   1.0000   1.0000   1.0000   1.0000
     1.0000   1.0000   1.0000   1.0000   1.0000   0.0000   0.0000   0.0000
     0.0000

          k = 0.1250 0.2887 0.0000 (  3099 PWs)   bands (ev):

   -60.1209 -34.3029 -34.2647 -34.1644 -12.4434 -11.6966  -4.2712  -3.1828
    -2.9136  -2.3762  -1.2673  -0.3846  -0.1162   2.5983   3.0816   3.2679
     4.6880

     occupation numbers 
     1.0000   1.0000   1.0000   1.0000   1.0000   1.0000   1.0000   1.0000
     1.0000   1.0000   1.0000   1.0000   1.0000   0.0000   0.0000   0.0000
     0.0000

          k = 0.1250 0.2887 0.0715 (  3099 PWs)   bands (ev):

   -60.1209 -34.3029 -34.2647 -34.1644 -12.4434 -11.6966  -4.2712  -3.1828
    -2.9136  -2.3763  -1.2673  -0.3846  -0.1162   2.5983   3.0816   3.2679
     4.6878

     occupation numbers 
     1.0000   1.0000   1.0000   1.0000   1.0000   1.0000   1.0000   1.0000
     1.0000   1.0000   1.0000   1.0000   1.0000   0.0000   0.0000   0.0000
     0.0000

          k = 0.1250 0.3608 0.0000 (  3092 PWs)   bands (ev):

   -60.1144 -34.3603 -34.2517 -34.1862 -12.0992 -11.5554  -4.4211  -3.4392
    -3.1582  -2.5158  -1.2959  -0.6271  -0.1714   2.6422   3.1186   3.5742
     4.8885

     occupation numbers 
     1.0000   1.0000   1.0000   1.0000   1.0000   1.0000   1.0000   1.0000
     1.0000   1.0000   1.0000   1.0000   1.0000   0.0000   0.0000   0.0000
     0.0000

          k = 0.1250 0.3608 0.0715 (  3094 PWs)   bands (ev):

   -60.1144 -34.3603 -34.2517 -34.1862 -12.0992 -11.5554  -4.4211  -3.4392
    -3.1582  -2.5158  -1.2959  -0.6271  -0.1714   2.6422   3.1186   3.5741
     4.8885

     occupation numbers 
     1.0000   1.0000   1.0000   1.0000   1.0000   1.0000   1.0000   1.0000
     1.0000   1.0000   1.0000   1.0000   1.0000   0.0000   0.0000   0.0000
     0.0000

          k = 0.1250 0.4330 0.0000 (  3081 PWs)   bands (ev):

   -60.1089 -34.4084 -34.2406 -34.2048 -11.7797 -11.4257  -4.6527  -3.8958
    -3.1727  -2.5456  -1.3236  -0.8982  -0.0425   2.8079   3.1915   3.9144
     4.9471

     occupation numbers 
     1.0000   1.0000   1.0000   1.0000   1.0000   1.0000   1.0000   1.0000
     1.0000   1.0000   1.0000   1.0000   1.0000   0.0000   0.0000   0.0000
     0.0000

          k = 0.1250 0.4330 0.0715 (  3077 PWs)   bands (ev):

   -60.1089 -34.4084 -34.2406 -34.2048 -11.7797 -11.4257  -4.6527  -3.8958
    -3.1727  -2.5456  -1.3236  -0.8982  -0.0425   2.8079   3.1915   3.9144
     4.9471

     occupation numbers 
     1.0000   1.0000   1.0000   1.0000   1.0000   1.0000   1.0000   1.0000
     1.0000   1.0000   1.0000   1.0000   1.0000   0.0000   0.0000   0.0000
     0.0000

          k = 0.1250 0.5052 0.0000 (  3095 PWs)   bands (ev):

   -60.1052 -34.4402 -34.2332 -34.2172 -11.5478 -11.3331  -4.8322  -4.1992
    -3.2783  -2.5266  -1.2790  -1.1104   0.1508   2.8656   3.3805   4.2086
     4.8812

     occupation numbers 
     1.0000   1.0000   1.0000   1.0000   1.0000   1.0000   1.0000   1.0000
     1.0000   1.0000   1.0000   1.0000   1.0000   0.0000   0.0000   0.0000
     0.0000

          k = 0.1250 0.5052 0.0715 (  3089 PWs)   bands (ev):

   -60.1052 -34.4402 -34.2332 -34.2172 -11.5478 -11.3331  -4.8322  -4.1992
    -3.2783  -2.5266  -1.2790  -1.1104   0.1508   2.8656   3.3805   4.2086
     4.8812

     occupation numbers 
     1.0000   1.0000   1.0000   1.0000   1.0000   1.0000   1.0000   1.0000
     1.0000   1.0000   1.0000   1.0000   1.0000   0.0000   0.0000   0.0000
     0.0000

          k = 0.1250 0.5774 0.0000 (  3108 PWs)   bands (ev):

   -60.1039 -34.4514 -34.2306 -34.2216 -11.4622 -11.2993  -4.8988  -4.3053
    -3.3357  -2.5111  -1.2521  -1.1922   0.2504   2.8441   3.5093   4.3518
     4.8078

     occupation numbers 
     1.0000   1.0000   1.0000   1.0000   1.0000   1.0000   1.0000   1.0000
     1.0000   1.0000   1.0000   1.0000   1.0000   0.0000   0.0000   0.0000
     0.0000

          k = 0.1250 0.5774 0.0715 (  3096 PWs)   bands (ev):

   -60.1039 -34.4514 -34.2306 -34.2216 -11.4622 -11.2993  -4.8988  -4.3053
    -3.3357  -2.5111  -1.2521  -1.1922   0.2504   2.8441   3.5093   4.3518
     4.8078

     occupation numbers 
     1.0000   1.0000   1.0000   1.0000   1.0000   1.0000   1.0000   1.0000
     1.0000   1.0000   1.0000   1.0000   1.0000   0.0000   0.0000   0.0000
     0.0000

          k = 0.1875 0.3248 0.0000 (  3096 PWs)   bands (ev):

   -60.1149 -34.3478 -34.2528 -34.1924 -12.1303 -11.5659  -4.3393  -3.3479
    -3.1202  -2.6277  -1.4657  -0.4931  -0.1591   2.5902   3.1411   3.4037
     4.9351

     occupation numbers 
     1.0000   1.0000   1.0000   1.0000   1.0000   1.0000   1.0000   1.0000
     1.0000   1.0000   1.0000   1.0000   1.0000   0.0000   0.0000   0.0000
     0.0000

          k = 0.1875 0.3248 0.0715 (  3098 PWs)   bands (ev):

   -60.1149 -34.3478 -34.2528 -34.1924 -12.1303 -11.5659  -4.3393  -3.3479
    -3.1202  -2.6276  -1.4657  -0.4931  -0.1591   2.5902   3.1411   3.4037
     4.9350

     occupation numbers 
     1.0000   1.0000   1.0000   1.0000   1.0000   1.0000   1.0000   1.0000
     1.0000   1.0000   1.0000   1.0000   1.0000   0.0000   0.0000   0.0000
     0.0000

          k = 0.1875 0.3969 0.0000 (  3085 PWs)   bands (ev):

   -60.1094 -34.3865 -34.2417 -34.2208 -11.8170 -11.4344  -4.4761  -3.8506
    -3.0304  -2.6405  -1.7628  -0.7362  -0.0622   2.7667   3.2017   3.6300
     5.0653

     occupation numbers 
     1.0000   1.0000   1.0000   1.0000   1.0000   1.0000   1.0000   1.0000
     1.0000   1.0000   1.0000   1.0000   1.0000   0.0000   0.0000   0.0000
     0.0000

          k = 0.1875 0.3969 0.0715 (  3084 PWs)   bands (ev):

   -60.1094 -34.3865 -34.2417 -34.2208 -11.8170 -11.4344  -4.4761  -3.8506
    -3.0304  -2.6405  -1.7628  -0.7362  -0.0622   2.7667   3.2017   3.6300
     5.0652

     occupation numbers 
     1.0000   1.0000   1.0000   1.0000   1.0000   1.0000   1.0000   1.0000
     1.0000   1.0000   1.0000   1.0000   1.0000   0.0000   0.0000   0.0000
     0.0000

          k = 0.1875 0.4691 0.0000 (  3091 PWs)   bands (ev):

   -60.1052 -34.4146 -34.2437 -34.2332 -11.5577 -11.3254  -4.5825  -4.2432
    -3.1070  -2.5569  -1.9170  -1.0163   0.1329   2.8242   3.4130   3.8500
     5.1006

     occupation numbers 
     1.0000   1.0000   1.0000   1.0000   1.0000   1.0000   1.0000   1.0000
     1.0000   1.0000   1.0000   1.0000   1.0000   0.0000   0.0000   0.0000
     0.0000

          k = 0.1875 0.4691 0.0715 (  3082 PWs)   bands (ev):

   -60.1052 -34.4146 -34.2437 -34.2332 -11.5577 -11.3254  -4.5825  -4.2432
    -3.1070  -2.5569  -1.9170  -1.0163   0.1329   2.8242   3.4130   3.8500
     5.1006

     occupation numbers 
     1.0000   1.0000   1.0000   1.0000   1.0000   1.0000   1.0000   1.0000
     1.0000   1.0000   1.0000   1.0000   1.0000   0.0000   0.0000   0.0000
     0.0000

          k = 0.1875 0.5413 0.0000 (  3085 PWs)   bands (ev):

   -60.1029 -34.4294 -34.2565 -34.2286 -11.4089 -11.2628  -4.6297  -4.4552
    -3.2473  -2.4662  -1.9408  -1.2150   0.3231   2.7136   3.6895   3.9838
     5.0911

     occupation numbers 
     1.0000   1.0000   1.0000   1.0000   1.0000   1.0000   1.0000   1.0000
     1.0000   1.0000   1.0000   1.0000   1.0000   0.0000   0.0000   0.0000
     0.0000

          k = 0.1875 0.5413 0.0715 (  3090 PWs)   bands (ev):

   -60.1029 -34.4294 -34.2565 -34.2286 -11.4089 -11.2628  -4.6297  -4.4552
    -3.2473  -2.4662  -1.9408  -1.2150   0.3231   2.7136   3.6895   3.9838
     5.0911

     occupation numbers 
     1.0000   1.0000   1.0000   1.0000   1.0000   1.0000   1.0000   1.0000
     1.0000   1.0000   1.0000   1.0000   1.0000   0.0000   0.0000   0.0000
     0.0000

          k = 0.2500 0.4330 0.0000 (  3082 PWs)   bands (ev):

   -60.1052 -34.4013 -34.2574 -34.2332 -11.5617 -11.3222  -4.4639  -4.2606
    -2.9495  -2.5724  -2.2693  -0.9712   0.1185   2.8016   3.4289   3.7075
     5.1959

     occupation numbers 
     1.0000   1.0000   1.0000   1.0000   1.0000   1.0000   1.0000   1.0000
     1.0000   1.0000   1.0000   1.0000   1.0000   0.0000   0.0000   0.0000
     0.0000

          k = 0.2500 0.4330 0.0715 (  3083 PWs)   bands (ev):

   -60.1052 -34.4013 -34.2574 -34.2332 -11.5617 -11.3222  -4.4639  -4.2606
    -2.9495  -2.5724  -2.2693  -0.9712   0.1185   2.8016   3.4289   3.7075
     5.1959

     occupation numbers 
     1.0000   1.0000   1.0000   1.0000   1.0000   1.0000   1.0000   1.0000
     1.0000   1.0000   1.0000   1.0000   1.0000   0.0000   0.0000   0.0000
     0.0000

          k = 0.2500 0.5052 0.0000 (  3086 PWs)   bands (ev):

   -60.1024 -34.4058 -34.2873 -34.2276 -11.3818 -11.2412  -4.5464  -4.3725
    -3.0867  -2.5394  -2.4252  -1.2318   0.3589   2.6005   3.7553   3.8027
     5.2946

     occupation numbers 
     1.0000   1.0000   1.0000   1.0000   1.0000   1.0000   1.0000   1.0000
     1.0000   1.0000   1.0000   1.0000   1.0000   0.0000   0.0000   0.0000
     0.0000

          k = 0.2500 0.5052 0.0715 (  3076 PWs)   bands (ev):

   -60.1024 -34.4058 -34.2873 -34.2276 -11.3818 -11.2412  -4.5464  -4.3725
    -3.0867  -2.5394  -2.4252  -1.2318   0.3589   2.6005   3.7553   3.8027
     5.2945

     occupation numbers 
     1.0000   1.0000   1.0000   1.0000   1.0000   1.0000   1.0000   1.0000
     1.0000   1.0000   1.0000   1.0000   1.0000   0.0000   0.0000   0.0000
     0.0000

          k = 0.2500 0.5774 0.0000 (  3082 PWs)   bands (ev):

   -60.1014 -34.4057 -34.2994 -34.2256 -11.3167 -11.2115  -4.6479  -4.3003
    -3.2427  -2.5745  -2.3386  -1.3593   0.4899   2.4696   3.7689   3.9836
     5.3331

     occupation numbers 
     1.0000   1.0000   1.0000   1.0000   1.0000   1.0000   1.0000   1.0000
     1.0000   1.0000   1.0000   1.0000   1.0000   0.0000   0.0000   0.0000
     0.0000

          k = 0.2500 0.5774 0.0715 (  3083 PWs)   bands (ev):

   -60.1014 -34.4057 -34.2994 -34.2256 -11.3167 -11.2115  -4.6479  -4.3003
    -3.2427  -2.5745  -2.3386  -1.3593   0.4899   2.4696   3.7689   3.9836
     5.3330

     occupation numbers 
     1.0000   1.0000   1.0000   1.0000   1.0000   1.0000   1.0000   1.0000
     1.0000   1.0000   1.0000   1.0000   1.0000   0.0000   0.0000   0.0000
     0.0000

          k = 0.3125 0.5413 0.0000 (  3070 PWs)   bands (ev):

   -60.1009 -34.3867 -34.3252 -34.2245 -11.2846 -11.1926  -4.7188  -4.0628
    -3.2987  -2.8627  -2.2663  -1.4357   0.5714   2.3472   3.6859   4.1009
     5.4355

     occupation numbers 
     1.0000   1.0000   1.0000   1.0000   1.0000   1.0000   1.0000   1.0000
     1.0000   1.0000   1.0000   1.0000   1.0000   0.0000   0.0000   0.0000
     0.0000

          k = 0.3125 0.5413 0.0715 (  3073 PWs)   bands (ev):

   -60.1009 -34.3867 -34.3252 -34.2245 -11.2846 -11.1926  -4.7188  -4.0628
    -3.2987  -2.8627  -2.2663  -1.4357   0.5714   2.3472   3.6859   4.1009
     5.4355

     occupation numbers 
     1.0000   1.0000   1.0000   1.0000   1.0000   1.0000   1.0000   1.0000
     1.0000   1.0000   1.0000   1.0000   1.0000   0.0000   0.0000   0.0000
     0.0000

     the Fermi energy is     1.6789 ev

!    total energy              =    -185.37522035 Ry
     estimated scf accuracy    <          5.0E-10 Ry
     smearing contrib. (-TS)   =       0.00000003 Ry
     internal energy E=F+TS    =    -185.37522038 Ry

     The total energy is F=E-TS. E is the sum of the following terms:
     one-electron contribution =    -701.34622642 Ry
     hartree contribution      =     352.13458886 Ry
     xc contribution           =     -32.23530391 Ry
     ewald contribution        =     196.07172110 Ry

     convergence has been achieved in  11 iterations

     negative rho (up, down):  8.295E-06 0.000E+00

     Forces acting on atoms (cartesian axes, Ry/au):

     atom    1 type  1   force =    -0.00000000   -0.00000000    0.00000000
     atom    2 type  2   force =     0.00000000    0.00000000    0.01681186
     atom    3 type  2   force =     0.00000000    0.00000000   -0.01681186
     The non-local contrib.  to forces
     atom    1 type  1   force =     0.00000000    0.00000000    0.00000000
     atom    2 type  2   force =     0.00000000    0.00000000    0.28269583
     atom    3 type  2   force =     0.00000000    0.00000000   -0.28269583
     The ionic contribution  to forces
     atom    1 type  1   force =    -0.00001685    0.00000973    0.00000000
     atom    2 type  2   force =     0.00000843   -0.00000487  -32.34245354
     atom    3 type  2   force =     0.00000843   -0.00000487   32.34245354
     The local contribution  to forces
     atom    1 type  1   force =    -0.00010317    0.00006898    0.00009177
     atom    2 type  2   force =     0.00001740   -0.00000980   32.08793593
     atom    3 type  2   force =     0.00001740   -0.00000980  -32.08792464
     The core correction contribution to forces
     atom    1 type  1   force =     0.00000000    0.00000000    0.00000000
     atom    2 type  2   force =    -0.00000162    0.00000087   -0.01131396
     atom    3 type  2   force =    -0.00000162    0.00000087    0.01131291
     The Hubbard contrib.    to forces
     atom    1 type  1   force =     0.00000000    0.00000000    0.00000000
     atom    2 type  2   force =     0.00000000    0.00000000    0.00000000
     atom    3 type  2   force =     0.00000000    0.00000000    0.00000000
     The SCF correction term to forces
     atom    1 type  1   force =    -0.00000000    0.00000000    0.00000000
     atom    2 type  2   force =    -0.00000000   -0.00000000   -0.00004728
     atom    3 type  2   force =    -0.00000000   -0.00000000    0.00004728

     Total force =     0.023776     Total SCF correction =     0.000067


     Computing stress (Cartesian axis) and pressure


     negative rho (up, down):  8.295E-06 0.000E+00
          total   stress  (Ry/bohr**3)                   (kbar)     P=      -21.12
  -0.00015833   0.00000000   0.00000000          -23.29        0.00        0.00
   0.00000000  -0.00015833   0.00000000            0.00      -23.29        0.00
   0.00000000   0.00000000  -0.00011402            0.00        0.00      -16.77

     kinetic stress (kbar)   6382.43      0.00     -0.00
                                0.00   6382.43      0.00
                               -0.00      0.00   6447.28

     local   stress (kbar)-113701.74     -0.01      0.00
                               -0.01-113701.75     -0.00
                                0.00     -0.00 111385.10

     nonloc. stress (kbar)   3257.54      0.00     -0.00
                                0.00   3257.54      0.00
                               -0.00      0.00   3271.21

     hartree stress (kbar)  55694.86     -0.00      0.00
                               -0.00  55694.86     -0.00
                                0.00     -0.00 -52861.16

     exc-cor stress (kbar)    -87.25      0.00      0.00
                                0.00    -87.25      0.00
                                0.00      0.00    -88.94

     corecor stress (kbar)  -1298.38     -0.00      0.00
                               -0.00  -1298.38     -0.00
                                0.00     -0.00  -1301.00

     ewald   stress (kbar)  49729.24      0.01     -0.00
                                0.01  49729.26     -0.00
                               -0.00     -0.00 -66869.27

     hubbard stress (kbar)      0.00      0.00      0.00
                                0.00      0.00      0.00
                                0.00      0.00      0.00

     DFT-D   stress (kbar)      0.00      0.00      0.00
                                0.00      0.00      0.00
                                0.00      0.00      0.00

     XDM     stress (kbar)      0.00      0.00      0.00
                                0.00      0.00      0.00
                                0.00      0.00      0.00

     dft-nl  stress (kbar)      0.00      0.00      0.00
                                0.00      0.00      0.00
                                0.00      0.00      0.00

     TS-vdW  stress (kbar)      0.00      0.00      0.00
                                0.00      0.00      0.00
                                0.00      0.00      0.00

     MDB     stress (kbar)      0.00      0.00      0.00
                                0.00      0.00      0.00
                                0.00      0.00      0.00

     3D-RISM stress (kbar)      0.00      0.00      0.00
                                0.00      0.00      0.00
                                0.00      0.00      0.00


     BFGS Geometry Optimization
     Energy error            =      0.0E+00 Ry
     Gradient error          =      1.7E-02 Ry/Bohr

     number of scf cycles    =   1
     number of bfgs steps    =   0

     energy             new  =    -185.3752203472 Ry

     new trust radius        =       0.0168118604 bohr
     new conv_thr            =       0.0000000006 Ry


ATOMIC_POSITIONS (crystal)
Mo               0.6666670000        0.3333330000        0.7500000000
S                0.3333330000        0.6666670000        0.6454239200
S                0.3333330000        0.6666670000        0.8545760800



     Writing config-only to output data dir ./out/aiida.save/ :
     XML data file
     NEW-OLD atomic charge density approx. for the potential

     negative rho (up, down):  8.168E-06 0.000E+00

     total cpu time spent up to now is       98.6 secs

     Self-consistent Calculation

     iteration #  1     ecut=    35.00 Ry     beta= 0.40
     Davidson diagonalization with overlap

---- Real-time Memory Report at c_bands before calling an iterative solver
           363 MiB given to the printing process from OS
             0 MiB allocation reported by mallinfo(arena+hblkhd)
         24310 MiB available memory on the node where the printing process lives
------------------
     ethr =  1.00E-06,  avg # of iterations =  5.5

     negative rho (up, down):  8.258E-06 0.000E+00

     total cpu time spent up to now is      109.5 secs

     WARNING: integrated charge=    26.00000283, expected=    26.00000000

     total energy              =    -185.37566962 Ry
     estimated scf accuracy    <       0.00002927 Ry

     iteration #  2     ecut=    35.00 Ry     beta= 0.40
     Davidson diagonalization with overlap

---- Real-time Memory Report at c_bands before calling an iterative solver
           363 MiB given to the printing process from OS
             0 MiB allocation reported by mallinfo(arena+hblkhd)
         24389 MiB available memory on the node where the printing process lives
------------------
     ethr =  1.13E-07,  avg # of iterations =  2.3

     negative rho (up, down):  8.339E-06 0.000E+00

     total cpu time spent up to now is      116.1 secs

     WARNING: integrated charge=    26.00000295, expected=    26.00000000

     total energy              =    -185.37567317 Ry
     estimated scf accuracy    <       0.00004308 Ry

     iteration #  3     ecut=    35.00 Ry     beta= 0.40
     Davidson diagonalization with overlap

---- Real-time Memory Report at c_bands before calling an iterative solver
           363 MiB given to the printing process from OS
             0 MiB allocation reported by mallinfo(arena+hblkhd)
         24254 MiB available memory on the node where the printing process lives
------------------
     ethr =  1.13E-07,  avg # of iterations =  2.0

     negative rho (up, down):  8.363E-06 0.000E+00

     total cpu time spent up to now is      122.1 secs

     WARNING: integrated charge=    26.00000346, expected=    26.00000000

     total energy              =    -185.37567898 Ry
     estimated scf accuracy    <       0.00000179 Ry

     iteration #  4     ecut=    35.00 Ry     beta= 0.40
     Davidson diagonalization with overlap

---- Real-time Memory Report at c_bands before calling an iterative solver
           363 MiB given to the printing process from OS
             0 MiB allocation reported by mallinfo(arena+hblkhd)
         24285 MiB available memory on the node where the printing process lives
------------------
     ethr =  6.90E-09,  avg # of iterations =  2.2

     negative rho (up, down):  8.394E-06 0.000E+00

     total cpu time spent up to now is      128.8 secs

     WARNING: integrated charge=    26.00000364, expected=    26.00000000

     total energy              =    -185.37567920 Ry
     estimated scf accuracy    <       0.00000020 Ry

     iteration #  5     ecut=    35.00 Ry     beta= 0.40
     Davidson diagonalization with overlap

---- Real-time Memory Report at c_bands before calling an iterative solver
           363 MiB given to the printing process from OS
             0 MiB allocation reported by mallinfo(arena+hblkhd)
         24282 MiB available memory on the node where the printing process lives
------------------
     ethr =  7.67E-10,  avg # of iterations =  3.1

     negative rho (up, down):  8.414E-06 0.000E+00

     total cpu time spent up to now is      135.5 secs

     WARNING: integrated charge=    26.00000372, expected=    26.00000000

     total energy              =    -185.37567925 Ry
     estimated scf accuracy    <       0.00000001 Ry

     iteration #  6     ecut=    35.00 Ry     beta= 0.40
     Davidson diagonalization with overlap

---- Real-time Memory Report at c_bands before calling an iterative solver
           363 MiB given to the printing process from OS
             0 MiB allocation reported by mallinfo(arena+hblkhd)
         24149 MiB available memory on the node where the printing process lives
------------------
     ethr =  5.68E-11,  avg # of iterations =  2.9

     negative rho (up, down):  8.422E-06 0.000E+00

     total cpu time spent up to now is      143.0 secs

     WARNING: integrated charge=    26.00000372, expected=    26.00000000

     total energy              =    -185.37567925 Ry
     estimated scf accuracy    <          2.2E-09 Ry

     iteration #  7     ecut=    35.00 Ry     beta= 0.40
     Davidson diagonalization with overlap

---- Real-time Memory Report at c_bands before calling an iterative solver
           363 MiB given to the printing process from OS
             0 MiB allocation reported by mallinfo(arena+hblkhd)
         24219 MiB available memory on the node where the printing process lives
------------------
     ethr =  8.56E-12,  avg # of iterations =  3.3

     negative rho (up, down):  8.438E-06 0.000E+00

     total cpu time spent up to now is      150.5 secs

     End of self-consistent calculation

          k = 0.0000 0.0000 0.0000 (  3089 PWs)   bands (ev):

   -60.1419 -34.3100 -34.1085 -34.1085 -13.4325 -12.0935  -4.9896  -2.0199
    -2.0199  -1.0870  -0.8969  -0.8968   0.6728   3.3894   3.3895   3.6651
     3.6651

     occupation numbers 
     1.0000   1.0000   1.0000   1.0000   1.0000   1.0000   1.0000   1.0000
     1.0000   1.0000   1.0000   1.0000   1.0000   0.0000   0.0000   0.0000
     0.0000

          k = 0.0000 0.0000 0.0715 (  3095 PWs)   bands (ev):

   -60.1419 -34.3100 -34.1085 -34.1085 -13.4326 -12.0935  -4.9896  -2.0199
    -2.0199  -1.0870  -0.8969  -0.8968   0.6728   3.3895   3.3895   3.6651
     3.6651

     occupation numbers 
     1.0000   1.0000   1.0000   1.0000   1.0000   1.0000   1.0000   1.0000
     1.0000   1.0000   1.0000   1.0000   1.0000   0.0000   0.0000   0.0000
     0.0000

          k = 0.0000 0.0722 0.0000 (  3101 PWs)   bands (ev):

   -60.1405 -34.3072 -34.1229 -34.1118 -13.3746 -12.0702  -4.9232  -2.1520
    -1.9589  -1.4591  -0.9911  -0.6083   0.6432   3.3004   3.4944   3.4969
     3.5971

     occupation numbers 
     1.0000   1.0000   1.0000   1.0000   1.0000   1.0000   1.0000   1.0000
     1.0000   1.0000   1.0000   1.0000   1.0000   0.0000   0.0000   0.0000
     0.0000

          k = 0.0000 0.0722 0.0715 (  3103 PWs)   bands (ev):

   -60.1405 -34.3072 -34.1229 -34.1118 -13.3746 -12.0702  -4.9232  -2.1520
    -1.9589  -1.4591  -0.9911  -0.6083   0.6432   3.3003   3.4944   3.4970
     3.5971

     occupation numbers 
     1.0000   1.0000   1.0000   1.0000   1.0000   1.0000   1.0000   1.0000
     1.0000   1.0000   1.0000   1.0000   1.0000   0.0000   0.0000   0.0000
     0.0000

          k = 0.0000 0.1443 0.0000 (  3102 PWs)   bands (ev):

   -60.1366 -34.2992 -34.1638 -34.1211 -13.2060 -12.0023  -4.7402  -2.4916
    -1.9419  -1.7828  -1.2355  -0.4137   0.5249   3.1537   3.1759   3.4205
     3.7631

     occupation numbers 
     1.0000   1.0000   1.0000   1.0000   1.0000   1.0000   1.0000   1.0000
     1.0000   1.0000   1.0000   1.0000   1.0000   0.0000   0.0000   0.0000
     0.0000

          k = 0.0000 0.1443 0.0715 (  3110 PWs)   bands (ev):

   -60.1366 -34.2992 -34.1638 -34.1211 -13.2060 -12.0023  -4.7402  -2.4916
    -1.9419  -1.7828  -1.2355  -0.4137   0.5249   3.1539   3.1758   3.4205
     3.7631

     occupation numbers 
     1.0000   1.0000   1.0000   1.0000   1.0000   1.0000   1.0000   1.0000
     1.0000   1.0000   1.0000   1.0000   1.0000   0.0000   0.0000   0.0000
     0.0000

          k = 0.0000 0.2165 0.0000 (  3098 PWs)   bands (ev):

   -60.1306 -34.2872 -34.2244 -34.1350 -12.9420 -11.8962  -4.5043  -2.9032
    -2.4380  -1.5521  -1.5132  -0.4502   0.2676   2.8923   3.1982   3.2377
     4.0991

     occupation numbers 
     1.0000   1.0000   1.0000   1.0000   1.0000   1.0000   1.0000   1.0000
     1.0000   1.0000   1.0000   1.0000   1.0000   0.0000   0.0000   0.0000
     0.0000

          k = 0.0000 0.2165 0.0715 (  3117 PWs)   bands (ev):

   -60.1306 -34.2872 -34.2244 -34.1350 -12.9420 -11.8962  -4.5043  -2.9032
    -2.4380  -1.5521  -1.5132  -0.4502   0.2676   2.8925   3.1982   3.2376
     4.0991

     occupation numbers 
     1.0000   1.0000   1.0000   1.0000   1.0000   1.0000   1.0000   1.0000
     1.0000   1.0000   1.0000   1.0000   1.0000   0.0000   0.0000   0.0000
     0.0000

          k = 0.0000 0.2887 0.0000 (  3104 PWs)   bands (ev):

   -60.1236 -34.2951 -34.2730 -34.1513 -12.6090 -11.7633  -4.3781  -3.2008
    -2.9319  -1.8735  -1.1877  -0.6491  -0.0775   2.8307   2.9962   3.5166
     4.4171

     occupation numbers 
     1.0000   1.0000   1.0000   1.0000   1.0000   1.0000   1.0000   1.0000
     1.0000   1.0000   1.0000   1.0000   1.0000   0.0000   0.0000   0.0000
     0.0000

          k = 0.0000 0.2887 0.0715 (  3109 PWs)   bands (ev):

   -60.1236 -34.2951 -34.2730 -34.1513 -12.6090 -11.7633  -4.3781  -3.2008
    -2.9319  -1.8735  -1.1877  -0.6491  -0.0775   2.8308   2.9962   3.5165
     4.4170

     occupation numbers 
     1.0000   1.0000   1.0000   1.0000   1.0000   1.0000   1.0000   1.0000
     1.0000   1.0000   1.0000   1.0000   1.0000   0.0000   0.0000   0.0000
     0.0000

          k = 0.0000 0.3608 0.0000 (  3106 PWs)   bands (ev):

   -60.1165 -34.3650 -34.2588 -34.1676 -12.2460 -11.6206  -4.5334  -3.3969
    -3.2680  -2.1555  -0.8763  -0.8594  -0.3161   2.8631   2.9298   3.8897
     4.6674

     occupation numbers 
     1.0000   1.0000   1.0000   1.0000   1.0000   1.0000   1.0000   1.0000
     1.0000   1.0000   1.0000   1.0000   1.0000   0.0000   0.0000   0.0000
     0.0000

          k = 0.0000 0.3608 0.0715 (  3097 PWs)   bands (ev):

   -60.1165 -34.3650 -34.2588 -34.1676 -12.2460 -11.6206  -4.5334  -3.3969
    -3.2680  -2.1555  -0.8763  -0.8594  -0.3161   2.8631   2.9299   3.8896
     4.6674

     occupation numbers 
     1.0000   1.0000   1.0000   1.0000   1.0000   1.0000   1.0000   1.0000
     1.0000   1.0000   1.0000   1.0000   1.0000   0.0000   0.0000   0.0000
     0.0000

          k = 0.0000 0.4330 0.0000 (  3092 PWs)   bands (ev):

   -60.1106 -34.4237 -34.2467 -34.1813 -11.9070 -11.4904  -4.8241  -3.7871
    -3.3038  -2.3715  -1.0520  -0.5866  -0.2943   2.8168   3.1073   4.2211
     4.8360

     occupation numbers 
     1.0000   1.0000   1.0000   1.0000   1.0000   1.0000   1.0000   1.0000
     1.0000   1.0000   1.0000   1.0000   1.0000   0.0000   0.0000   0.0000
     0.0000

          k = 0.0000 0.4330 0.0715 (  3095 PWs)   bands (ev):

   -60.1106 -34.4237 -34.2467 -34.1813 -11.9070 -11.4904  -4.8241  -3.7871
    -3.3038  -2.3715  -1.0520  -0.5866  -0.2942   2.8168   3.1073   4.2210
     4.8360

     occupation numbers 
     1.0000   1.0000   1.0000   1.0000   1.0000   1.0000   1.0000   1.0000
     1.0000   1.0000   1.0000   1.0000   1.0000   0.0000   0.0000   0.0000
     0.0000

          k = 0.0000 0.5052 0.0000 (  3102 PWs)   bands (ev):

   -60.1066 -34.4626 -34.2386 -34.1905 -11.6594 -11.3979  -5.0612  -4.0495
    -3.3906  -2.5063  -1.1553  -0.4128  -0.1082   2.8302   3.2865   4.4260
     4.9293

     occupation numbers 
     1.0000   1.0000   1.0000   1.0000   1.0000   1.0000   1.0000   1.0000
     1.0000   1.0000   1.0000   1.0000   1.0000   0.0000   0.0000   0.0000
     0.0000

          k = 0.0000 0.5052 0.0715 (  3099 PWs)   bands (ev):

   -60.1066 -34.4626 -34.2386 -34.1905 -11.6594 -11.3979  -5.0612  -4.0495
    -3.3906  -2.5063  -1.1553  -0.4128  -0.1082   2.8302   3.2865   4.4260
     4.9293

     occupation numbers 
     1.0000   1.0000   1.0000   1.0000   1.0000   1.0000   1.0000   1.0000
     1.0000   1.0000   1.0000   1.0000   1.0000   0.0000   0.0000   0.0000
     0.0000

          k = 0.0000-0.5774 0.0000 (  3092 PWs)   bands (ev):

   -60.1052 -34.4763 -34.2357 -34.1937 -11.5674 -11.3642  -5.1509  -4.1422
    -3.4357  -2.5520  -1.1886  -0.3544  -0.0050   2.8453   3.3694   4.4907
     4.9587

     occupation numbers 
     1.0000   1.0000   1.0000   1.0000   1.0000   1.0000   1.0000   1.0000
     1.0000   1.0000   1.0000   1.0000   1.0000   0.0000   0.0000   0.0000
     0.0000

          k = 0.0000-0.5774 0.0715 (  3098 PWs)   bands (ev):

   -60.1052 -34.4763 -34.2357 -34.1937 -11.5674 -11.3642  -5.1509  -4.1422
    -3.4357  -2.5521  -1.1886  -0.3544  -0.0050   2.8453   3.3694   4.4907
     4.9587

     occupation numbers 
     1.0000   1.0000   1.0000   1.0000   1.0000   1.0000   1.0000   1.0000
     1.0000   1.0000   1.0000   1.0000   1.0000   0.0000   0.0000   0.0000
     0.0000

          k = 0.0625 0.1083 0.0000 (  3105 PWs)   bands (ev):

   -60.1379 -34.3018 -34.1501 -34.1185 -13.2613 -12.0246  -4.7979  -2.3858
    -1.8423  -1.7955  -1.1992  -0.4149   0.5692   3.1756   3.2509   3.4676
     3.6974

     occupation numbers 
     1.0000   1.0000   1.0000   1.0000   1.0000   1.0000   1.0000   1.0000
     1.0000   1.0000   1.0000   1.0000   1.0000   0.0000   0.0000   0.0000
     0.0000

          k = 0.0625 0.1083 0.0715 (  3107 PWs)   bands (ev):

   -60.1379 -34.3018 -34.1501 -34.1185 -13.2613 -12.0246  -4.7979  -2.3858
    -1.8423  -1.7955  -1.1992  -0.4149   0.5693   3.1756   3.2511   3.4676
     3.6974

     occupation numbers 
     1.0000   1.0000   1.0000   1.0000   1.0000   1.0000   1.0000   1.0000
     1.0000   1.0000   1.0000   1.0000   1.0000   0.0000   0.0000   0.0000
     0.0000

          k = 0.0625 0.1804 0.0000 (  3107 PWs)   bands (ev):

   -60.1329 -34.2918 -34.1997 -34.1312 -13.0448 -11.9374  -4.5828  -2.7553
    -2.2160  -1.6288  -1.5526  -0.3190   0.3791   2.9574   3.1107   3.2671
     4.0279

     occupation numbers 
     1.0000   1.0000   1.0000   1.0000   1.0000   1.0000   1.0000   1.0000
     1.0000   1.0000   1.0000   1.0000   1.0000   0.0000   0.0000   0.0000
     0.0000

          k = 0.0625 0.1804 0.0715 (  3114 PWs)   bands (ev):

   -60.1329 -34.2918 -34.1997 -34.1312 -13.0448 -11.9374  -4.5828  -2.7553
    -2.2160  -1.6288  -1.5526  -0.3190   0.3791   2.9576   3.1106   3.2671
     4.0279

     occupation numbers 
     1.0000   1.0000   1.0000   1.0000   1.0000   1.0000   1.0000   1.0000
     1.0000   1.0000   1.0000   1.0000   1.0000   0.0000   0.0000   0.0000
     0.0000

          k = 0.0625 0.2526 0.0000 (  3105 PWs)   bands (ev):

   -60.1264 -34.2787 -34.2639 -34.1478 -12.7457 -11.8173  -4.3835  -3.1033
    -2.6803  -1.9106  -1.3591  -0.4215   0.0707   2.7775   3.0930   3.2600
     4.3733

     occupation numbers 
     1.0000   1.0000   1.0000   1.0000   1.0000   1.0000   1.0000   1.0000
     1.0000   1.0000   1.0000   1.0000   1.0000   0.0000   0.0000   0.0000
     0.0000

          k = 0.0625 0.2526 0.0715 (  3104 PWs)   bands (ev):

   -60.1264 -34.2787 -34.2639 -34.1478 -12.7457 -11.8173  -4.3835  -3.1033
    -2.6803  -1.9106  -1.3591  -0.4215   0.0707   2.7776   3.0931   3.2599
     4.3733

     occupation numbers 
     1.0000   1.0000   1.0000   1.0000   1.0000   1.0000   1.0000   1.0000
     1.0000   1.0000   1.0000   1.0000   1.0000   0.0000   0.0000   0.0000
     0.0000

          k = 0.0625 0.3248 0.0000 (  3108 PWs)   bands (ev):

   -60.1194 -34.3325 -34.2645 -34.1658 -12.3963 -11.6782  -4.4027  -3.2446
    -3.1699  -2.1907  -1.1055  -0.6480  -0.2059   2.7317   3.0231   3.5836
     4.6561

     occupation numbers 
     1.0000   1.0000   1.0000   1.0000   1.0000   1.0000   1.0000   1.0000
     1.0000   1.0000   1.0000   1.0000   1.0000   0.0000   0.0000   0.0000
     0.0000

          k = 0.0625 0.3248 0.0715 (  3096 PWs)   bands (ev):

   -60.1194 -34.3325 -34.2645 -34.1658 -12.3962 -11.6782  -4.4027  -3.2445
    -3.1699  -2.1907  -1.1055  -0.6480  -0.2059   2.7318   3.0231   3.5835
     4.6560

     occupation numbers 
     1.0000   1.0000   1.0000   1.0000   1.0000   1.0000   1.0000   1.0000
     1.0000   1.0000   1.0000   1.0000   1.0000   0.0000   0.0000   0.0000
     0.0000

          k = 0.0625 0.3969 0.0000 (  3094 PWs)   bands (ev):

   -60.1128 -34.3953 -34.2513 -34.1823 -12.0424 -11.5396  -4.6476  -3.6254
    -3.2506  -2.3806  -0.9326  -0.8869  -0.2386   2.7711   3.0743   3.9579
     4.8305

     occupation numbers 
     1.0000   1.0000   1.0000   1.0000   1.0000   1.0000   1.0000   1.0000
     1.0000   1.0000   1.0000   1.0000   1.0000   0.0000   0.0000   0.0000
     0.0000

          k = 0.0625 0.3969 0.0715 (  3088 PWs)   bands (ev):

   -60.1128 -34.3953 -34.2513 -34.1823 -12.0424 -11.5396  -4.6476  -3.6254
    -3.2506  -2.3806  -0.9326  -0.8869  -0.2386   2.7712   3.0744   3.9578
     4.8305

     occupation numbers 
     1.0000   1.0000   1.0000   1.0000   1.0000   1.0000   1.0000   1.0000
     1.0000   1.0000   1.0000   1.0000   1.0000   0.0000   0.0000   0.0000
     0.0000

          k = 0.0625 0.4691 0.0000 (  3099 PWs)   bands (ev):

   -60.1079 -34.4430 -34.2412 -34.1949 -11.7449 -11.4258  -4.9116  -3.9763
    -3.3205  -2.4951  -1.0699  -0.7867  -0.0726   2.8349   3.2150   4.2874
     4.8763

     occupation numbers 
     1.0000   1.0000   1.0000   1.0000   1.0000   1.0000   1.0000   1.0000
     1.0000   1.0000   1.0000   1.0000   1.0000   0.0000   0.0000   0.0000
     0.0000

          k = 0.0625 0.4691 0.0715 (  3093 PWs)   bands (ev):

   -60.1079 -34.4430 -34.2412 -34.1949 -11.7449 -11.4258  -4.9116  -3.9763
    -3.3205  -2.4951  -1.0699  -0.7867  -0.0726   2.8349   3.2150   4.2874
     4.8763

     occupation numbers 
     1.0000   1.0000   1.0000   1.0000   1.0000   1.0000   1.0000   1.0000
     1.0000   1.0000   1.0000   1.0000   1.0000   0.0000   0.0000   0.0000
     0.0000

          k = 0.0625 0.5413 0.0000 (  3100 PWs)   bands (ev):

   -60.1052 -34.4686 -34.2357 -34.2017 -11.5715 -11.3609  -5.0719  -4.1671
    -3.4031  -2.5485  -1.1665  -0.6851   0.0923   2.8615   3.3653   4.5175
     4.8209

     occupation numbers 
     1.0000   1.0000   1.0000   1.0000   1.0000   1.0000   1.0000   1.0000
     1.0000   1.0000   1.0000   1.0000   1.0000   0.0000   0.0000   0.0000
     0.0000

          k = 0.0625 0.5413 0.0715 (  3103 PWs)   bands (ev):

   -60.1052 -34.4686 -34.2357 -34.2017 -11.5715 -11.3609  -5.0719  -4.1671
    -3.4031  -2.5485  -1.1665  -0.6851   0.0923   2.8615   3.3653   4.5174
     4.8209

     occupation numbers 
     1.0000   1.0000   1.0000   1.0000   1.0000   1.0000   1.0000   1.0000
     1.0000   1.0000   1.0000   1.0000   1.0000   0.0000   0.0000   0.0000
     0.0000

          k = 0.1250 0.2165 0.0000 (  3113 PWs)   bands (ev):

   -60.1274 -34.2807 -34.2509 -34.1486 -12.7928 -11.8357  -4.3893  -3.0537
    -2.5149  -2.0480  -1.4366  -0.2636   0.1301   2.7500   3.1019   3.1258
     4.3916

     occupation numbers 
     1.0000   1.0000   1.0000   1.0000   1.0000   1.0000   1.0000   1.0000
     1.0000   1.0000   1.0000   1.0000   1.0000   0.0000   0.0000   0.0000
     0.0000

          k = 0.1250 0.2165 0.0715 (  3112 PWs)   bands (ev):

   -60.1274 -34.2807 -34.2509 -34.1486 -12.7928 -11.8357  -4.3893  -3.0537
    -2.5149  -2.0480  -1.4366  -0.2636   0.1301   2.7501   3.1018   3.1258
     4.3915

     occupation numbers 
     1.0000   1.0000   1.0000   1.0000   1.0000   1.0000   1.0000   1.0000
     1.0000   1.0000   1.0000   1.0000   1.0000   0.0000   0.0000   0.0000
     0.0000

[...]
     1.0000   1.0000   1.0000   1.0000   1.0000   1.0000   1.0000   1.0000
     1.0000   1.0000   1.0000   1.0000   1.0000   0.0000   0.0000   0.0000
     0.0000

          k = 0.1250 0.3608 0.0000 (  3092 PWs)   bands (ev):

   -60.1150 -34.3798 -34.2594 -34.2024 -12.1849 -11.5932  -4.5355  -3.5130
    -3.2157  -2.5820  -1.3762  -0.5991  -0.2166   2.6869   3.1238   3.6021
     4.9678

     occupation numbers 
     1.0000   1.0000   1.0000   1.0000   1.0000   1.0000   1.0000   1.0000
     1.0000   1.0000   1.0000   1.0000   1.0000   0.0000   0.0000   0.0000
     0.0000

          k = 0.1250 0.3608 0.0715 (  3094 PWs)   bands (ev):

   -60.1150 -34.3798 -34.2594 -34.2024 -12.1849 -11.5932  -4.5355  -3.5130
    -3.2157  -2.5820  -1.3762  -0.5991  -0.2166   2.6869   3.1239   3.6021
     4.9677

     occupation numbers 
     1.0000   1.0000   1.0000   1.0000   1.0000   1.0000   1.0000   1.0000
     1.0000   1.0000   1.0000   1.0000   1.0000   0.0000   0.0000   0.0000
     0.0000

          k = 0.1250 0.4330 0.0000 (  3081 PWs)   bands (ev):

   -60.1094 -34.4287 -34.2481 -34.2213 -11.8666 -11.4716  -4.7490  -3.9652
    -3.2310  -2.6106  -1.3885  -0.8653  -0.0973   2.8362   3.1748   3.9579
     5.0289

     occupation numbers 
     1.0000   1.0000   1.0000   1.0000   1.0000   1.0000   1.0000   1.0000
     1.0000   1.0000   1.0000   1.0000   1.0000   0.0000   0.0000   0.0000
     0.0000

          k = 0.1250 0.4330 0.0715 (  3077 PWs)   bands (ev):

   -60.1094 -34.4287 -34.2481 -34.2213 -11.8666 -11.4716  -4.7490  -3.9652
    -3.2310  -2.6106  -1.3885  -0.8654  -0.0973   2.8362   3.1748   3.9579
     5.0289

     occupation numbers 
     1.0000   1.0000   1.0000   1.0000   1.0000   1.0000   1.0000   1.0000
     1.0000   1.0000   1.0000   1.0000   1.0000   0.0000   0.0000   0.0000
     0.0000

          k = 0.1250 0.5052 0.0000 (  3095 PWs)   bands (ev):

   -60.1057 -34.4611 -34.2405 -34.2339 -11.6365 -11.3849  -4.9097  -4.2642
    -3.3460  -2.5935  -1.3343  -1.0728   0.0984   2.8506   3.3727   4.2693
     4.9532

     occupation numbers 
     1.0000   1.0000   1.0000   1.0000   1.0000   1.0000   1.0000   1.0000
     1.0000   1.0000   1.0000   1.0000   1.0000   0.0000   0.0000   0.0000
     0.0000

          k = 0.1250 0.5052 0.0715 (  3089 PWs)   bands (ev):

   -60.1057 -34.4611 -34.2405 -34.2339 -11.6365 -11.3849  -4.9097  -4.2642
    -3.3460  -2.5935  -1.3343  -1.0728   0.0984   2.8506   3.3727   4.2693
     4.9532

     occupation numbers 
     1.0000   1.0000   1.0000   1.0000   1.0000   1.0000   1.0000   1.0000
     1.0000   1.0000   1.0000   1.0000   1.0000   0.0000   0.0000   0.0000
     0.0000

          k = 0.1250 0.5774 0.0000 (  3108 PWs)   bands (ev):

   -60.1044 -34.4725 -34.2383 -34.2378 -11.5517 -11.3532  -4.9682  -4.3686
    -3.4087  -2.5794  -1.3035  -1.1523   0.2009   2.8097   3.5062   4.4255
     4.8684

     occupation numbers 
     1.0000   1.0000   1.0000   1.0000   1.0000   1.0000   1.0000   1.0000
     1.0000   1.0000   1.0000   1.0000   1.0000   0.0000   0.0000   0.0000
     0.0000

          k = 0.1250 0.5774 0.0715 (  3096 PWs)   bands (ev):

   -60.1044 -34.4725 -34.2383 -34.2378 -11.5517 -11.3532  -4.9682  -4.3686
    -3.4087  -2.5794  -1.3035  -1.1523   0.2009   2.8097   3.5062   4.4255
     4.8684

     occupation numbers 
     1.0000   1.0000   1.0000   1.0000   1.0000   1.0000   1.0000   1.0000
     1.0000   1.0000   1.0000   1.0000   1.0000   0.0000   0.0000   0.0000
     0.0000

          k = 0.1875 0.3248 0.0000 (  3096 PWs)   bands (ev):

   -60.1155 -34.3671 -34.2605 -34.2087 -12.2158 -11.6028  -4.4566  -3.4373
    -3.1788  -2.6748  -1.5434  -0.4664  -0.2049   2.6420   3.1434   3.4271
     5.0162

     occupation numbers 
     1.0000   1.0000   1.0000   1.0000   1.0000   1.0000   1.0000   1.0000
     1.0000   1.0000   1.0000   1.0000   1.0000   0.0000   0.0000   0.0000
     0.0000

          k = 0.1875 0.3248 0.0715 (  3098 PWs)   bands (ev):

   -60.1155 -34.3671 -34.2605 -34.2087 -12.2158 -11.6028  -4.4566  -3.4373
    -3.1788  -2.6748  -1.5434  -0.4664  -0.2049   2.6420   3.1434   3.4270
     5.0160

     occupation numbers 
     1.0000   1.0000   1.0000   1.0000   1.0000   1.0000   1.0000   1.0000
     1.0000   1.0000   1.0000   1.0000   1.0000   0.0000   0.0000   0.0000
     0.0000

          k = 0.1875 0.3969 0.0000 (  3085 PWs)   bands (ev):

   -60.1099 -34.4065 -34.2492 -34.2375 -11.9033 -11.4790  -4.5796  -3.9401
    -3.0844  -2.6789  -1.8268  -0.7059  -0.1196   2.8192   3.1693   3.6693
     5.1495

     occupation numbers 
     1.0000   1.0000   1.0000   1.0000   1.0000   1.0000   1.0000   1.0000
     1.0000   1.0000   1.0000   1.0000   1.0000   0.0000   0.0000   0.0000
     0.0000

          k = 0.1875 0.3969 0.0715 (  3084 PWs)   bands (ev):

   -60.1099 -34.4065 -34.2492 -34.2375 -11.9033 -11.4790  -4.5796  -3.9401
    -3.0844  -2.6789  -1.8268  -0.7059  -0.1196   2.8193   3.1693   3.6693
     5.1495

     occupation numbers 
     1.0000   1.0000   1.0000   1.0000   1.0000   1.0000   1.0000   1.0000
     1.0000   1.0000   1.0000   1.0000   1.0000   0.0000   0.0000   0.0000
     0.0000

          k = 0.1875 0.4691 0.0000 (  3091 PWs)   bands (ev):

   -60.1057 -34.4351 -34.2608 -34.2405 -11.6457 -11.3763  -4.6668  -4.3300
    -3.1678  -2.5927  -1.9733  -0.9827   0.0756   2.8216   3.4049   3.9101
     5.1741

     occupation numbers 
     1.0000   1.0000   1.0000   1.0000   1.0000   1.0000   1.0000   1.0000
     1.0000   1.0000   1.0000   1.0000   1.0000   0.0000   0.0000   0.0000
     0.0000

          k = 0.1875 0.4691 0.0715 (  3082 PWs)   bands (ev):

   -60.1057 -34.4351 -34.2608 -34.2405 -11.6457 -11.3763  -4.6668  -4.3300
    -3.1678  -2.5927  -1.9733  -0.9827   0.0756   2.8216   3.4049   3.9101
     5.1741

     occupation numbers 
     1.0000   1.0000   1.0000   1.0000   1.0000   1.0000   1.0000   1.0000
     1.0000   1.0000   1.0000   1.0000   1.0000   0.0000   0.0000   0.0000
     0.0000

          k = 0.1875 0.5413 0.0000 (  3085 PWs)   bands (ev):

   -60.1034 -34.4502 -34.2738 -34.2358 -11.4982 -11.3173  -4.6985  -4.5399
    -3.3191  -2.5027  -1.9911  -1.1780   0.2700   2.6699   3.7039   4.0611
     5.1506

     occupation numbers 
     1.0000   1.0000   1.0000   1.0000   1.0000   1.0000   1.0000   1.0000
     1.0000   1.0000   1.0000   1.0000   1.0000   0.0000   0.0000   0.0000
     0.0000

          k = 0.1875 0.5413 0.0715 (  3090 PWs)   bands (ev):

   -60.1034 -34.4502 -34.2738 -34.2358 -11.4982 -11.3173  -4.6985  -4.5399
    -3.3191  -2.5027  -1.9911  -1.1780   0.2700   2.6699   3.7039   4.0611
     5.1506

     occupation numbers 
     1.0000   1.0000   1.0000   1.0000   1.0000   1.0000   1.0000   1.0000
     1.0000   1.0000   1.0000   1.0000   1.0000   0.0000   0.0000   0.0000
     0.0000

          k = 0.2500 0.4330 0.0000 (  3082 PWs)   bands (ev):

   -60.1057 -34.4217 -34.2746 -34.2405 -11.6495 -11.3727  -4.5524  -4.3558
    -3.0028  -2.5964  -2.3299  -0.9388   0.0600   2.8034   3.4209   3.7664
     5.2717

     occupation numbers 
     1.0000   1.0000   1.0000   1.0000   1.0000   1.0000   1.0000   1.0000
     1.0000   1.0000   1.0000   1.0000   1.0000   0.0000   0.0000   0.0000
     0.0000

          k = 0.2500 0.4330 0.0715 (  3083 PWs)   bands (ev):

   -60.1057 -34.4217 -34.2746 -34.2405 -11.6495 -11.3727  -4.5524  -4.3558
    -3.0028  -2.5964  -2.3299  -0.9388   0.0600   2.8034   3.4209   3.7664
     5.2716

     occupation numbers 
     1.0000   1.0000   1.0000   1.0000   1.0000   1.0000   1.0000   1.0000
     1.0000   1.0000   1.0000   1.0000   1.0000   0.0000   0.0000   0.0000
     0.0000

          k = 0.2500 0.5052 0.0000 (  3086 PWs)   bands (ev):

   -60.1028 -34.4263 -34.3049 -34.2347 -11.4710 -11.2959  -4.6430  -4.4446
    -3.1499  -2.5950  -2.4425  -1.1978   0.3052   2.5518   3.8290   3.8324
     5.3579

     occupation numbers 
     1.0000   1.0000   1.0000   1.0000   1.0000   1.0000   1.0000   1.0000
     1.0000   1.0000   1.0000   1.0000   1.0000   0.0000   0.0000   0.0000
     0.0000

          k = 0.2500 0.5052 0.0715 (  3076 PWs)   bands (ev):

   -60.1028 -34.4263 -34.3049 -34.2347 -11.4710 -11.2959  -4.6431  -4.4446
    -3.1499  -2.5950  -2.4425  -1.1978   0.3052   2.5518   3.8290   3.8324
     5.3579

     occupation numbers 
     1.0000   1.0000   1.0000   1.0000   1.0000   1.0000   1.0000   1.0000
     1.0000   1.0000   1.0000   1.0000   1.0000   0.0000   0.0000   0.0000
     0.0000

          k = 0.2500 0.5774 0.0000 (  3082 PWs)   bands (ev):

   -60.1018 -34.4263 -34.3171 -34.2326 -11.4065 -11.2677  -4.7448  -4.3625
    -3.3148  -2.6273  -2.3547  -1.3240   0.4407   2.4025   3.8530   4.0229
     5.3910

     occupation numbers 
     1.0000   1.0000   1.0000   1.0000   1.0000   1.0000   1.0000   1.0000
     1.0000   1.0000   1.0000   1.0000   1.0000   0.0000   0.0000   0.0000
     0.0000

          k = 0.2500 0.5774 0.0715 (  3083 PWs)   bands (ev):

   -60.1018 -34.4263 -34.3171 -34.2326 -11.4065 -11.2677  -4.7448  -4.3625
    -3.3148  -2.6273  -2.3547  -1.3240   0.4407   2.4025   3.8530   4.0229
     5.3910

     occupation numbers 
     1.0000   1.0000   1.0000   1.0000   1.0000   1.0000   1.0000   1.0000
     1.0000   1.0000   1.0000   1.0000   1.0000   0.0000   0.0000   0.0000
     0.0000

          k = 0.3125 0.5413 0.0000 (  3070 PWs)   bands (ev):

   -60.1013 -34.4074 -34.3430 -34.2316 -11.3745 -11.2493  -4.8196  -4.1225
    -3.3638  -2.9240  -2.2750  -1.4017   0.5255   2.2707   3.7719   4.1508
     5.4942

     occupation numbers 
     1.0000   1.0000   1.0000   1.0000   1.0000   1.0000   1.0000   1.0000
     1.0000   1.0000   1.0000   1.0000   1.0000   0.0001   0.0000   0.0000
     0.0000

          k = 0.3125 0.5413 0.0715 (  3073 PWs)   bands (ev):

   -60.1013 -34.4074 -34.3430 -34.2316 -11.3745 -11.2493  -4.8197  -4.1225
    -3.3638  -2.9240  -2.2750  -1.4017   0.5255   2.2707   3.7719   4.1508
     5.4942

     occupation numbers 
     1.0000   1.0000   1.0000   1.0000   1.0000   1.0000   1.0000   1.0000
     1.0000   1.0000   1.0000   1.0000   1.0000   0.0001   0.0000   0.0000
     0.0000

     the Fermi energy is     1.6676 ev

     WARNING: integrated charge=    26.00000948, expected=    26.00000000

!    total energy              =    -185.37596148 Ry
     estimated scf accuracy    <          2.3E-11 Ry
     smearing contrib. (-TS)   =       0.00000014 Ry
     internal energy E=F+TS    =    -185.37596162 Ry

     The total energy is F=E-TS. E is the sum of the following terms:
     one-electron contribution =    -706.91731627 Ry
     hartree contribution      =     354.90258899 Ry
     xc contribution           =     -32.27237043 Ry
     ewald contribution        =     198.91113608 Ry

     convergence has been achieved in   8 iterations

     negative rho (up, down):  8.507E-06 0.000E+00

     Forces acting on atoms (cartesian axes, Ry/au):

     atom    1 type  1   force =     0.00000000    0.00000000    0.00000000
     atom    2 type  2   force =     0.00000000    0.00000000   -0.00006326
     atom    3 type  2   force =     0.00000000    0.00000000    0.00006326
     The non-local contrib.  to forces
     atom    1 type  1   force =     0.00000000    0.00000000    0.00000000
     atom    2 type  2   force =    -0.00000000    0.00000000    0.27299176
     atom    3 type  2   force =     0.00000000    0.00000000   -0.27299176
     The ionic contribution  to forces
     atom    1 type  1   force =    -0.00001763    0.00001018    0.00000000
     atom    2 type  2   force =     0.00000882   -0.00000509  -32.41916873
     atom    3 type  2   force =     0.00000882   -0.00000509   32.41916873
     The local contribution  to forces
     atom    1 type  1   force =    -0.00010305    0.00006891    0.00009173
     atom    2 type  2   force =     0.00001720   -0.00000968   32.15670726
     atom    3 type  2   force =     0.00001720   -0.00000968  -32.15669604
     The core correction contribution to forces
     atom    1 type  1   force =     0.00000000    0.00000000    0.00000000
     atom    2 type  2   force =    -0.00000162    0.00000087   -0.01057734
     atom    3 type  2   force =    -0.00000162    0.00000087    0.01057629
     The Hubbard contrib.    to forces
     atom    1 type  1   force =     0.00000000    0.00000000    0.00000000
     atom    2 type  2   force =     0.00000000    0.00000000    0.00000000
     atom    3 type  2   force =     0.00000000    0.00000000    0.00000000
     The SCF correction term to forces
     atom    1 type  1   force =    -0.00000000   -0.00000000    0.00000000
     atom    2 type  2   force =    -0.00000000   -0.00000000   -0.00001113
     atom    3 type  2   force =    -0.00000000    0.00000000    0.00001113

     Total force =     0.000089     Total SCF correction =     0.000016
     SCF correction compared to forces is large: reduce conv_thr to get better values


     Computing stress (Cartesian axis) and pressure


     negative rho (up, down):  8.507E-06 0.000E+00
          total   stress  (Ry/bohr**3)                   (kbar)     P=      -11.91
  -0.00012081   0.00000000   0.00000000          -17.77        0.00        0.00
   0.00000000  -0.00012081  -0.00000000            0.00      -17.77       -0.00
   0.00000000  -0.00000000  -0.00000130            0.00       -0.00       -0.19

     kinetic stress (kbar)   6386.26      0.00      0.00
                                0.00   6386.26      0.00
                                0.00      0.00   6472.31

     local   stress (kbar)-114699.63     -0.01      0.00
                               -0.01-114699.64     -0.00
                                0.00     -0.00 112443.03

     nonloc. stress (kbar)   3260.20      0.00      0.00
                                0.00   3260.20      0.00
                                0.00      0.00   3272.70

     hartree stress (kbar)  56164.49     -0.00      0.00
                               -0.00  56164.49      0.00
                                0.00      0.00 -53340.35

     exc-cor stress (kbar)    -89.01      0.00      0.00
                                0.00    -89.01      0.00
                                0.00      0.00    -90.71

     corecor stress (kbar)  -1298.59     -0.00      0.00
                               -0.00  -1298.59      0.00
                                0.00      0.00  -1301.30

     ewald   stress (kbar)  50258.51      0.01      0.00
                                0.01  50258.52     -0.00
                                0.00     -0.00 -67455.86

     hubbard stress (kbar)      0.00      0.00      0.00
                                0.00      0.00      0.00
                                0.00      0.00      0.00

     DFT-D   stress (kbar)      0.00      0.00      0.00
                                0.00      0.00      0.00
                                0.00      0.00      0.00

     XDM     stress (kbar)      0.00      0.00      0.00
                                0.00      0.00      0.00
                                0.00      0.00      0.00

     dft-nl  stress (kbar)      0.00      0.00      0.00
                                0.00      0.00      0.00
                                0.00      0.00      0.00

     TS-vdW  stress (kbar)      0.00      0.00      0.00
                                0.00      0.00      0.00
                                0.00      0.00      0.00

     MDB     stress (kbar)      0.00      0.00      0.00
                                0.00      0.00      0.00
                                0.00      0.00      0.00

     3D-RISM stress (kbar)      0.00      0.00      0.00
                                0.00      0.00      0.00
                                0.00      0.00      0.00

     Energy error            =      2.7E-05 Ry
     Gradient error          =      6.3E-05 Ry/Bohr

     bfgs converged in   4 scf cycles and   3 bfgs steps
     (criteria: energy <  3.0E-05 Ry, force <  1.0E-04 Ry/Bohr)

     End of BFGS Geometry Optimization

     Final energy             =    -185.3759614804 Ry

     File ./out/aiida.bfgs deleted, as requested
Begin final coordinates

ATOMIC_POSITIONS (crystal)
Mo               0.6666670000        0.3333330000        0.7500000000
S                0.3333330000        0.6666670000        0.6463853121
S                0.3333330000        0.6666670000        0.8536146879
End final coordinates



     Writing all to output data dir ./out/aiida.save/ :
     XML data file, charge density, pseudopotentials, collected wavefunctions

     init_run     :      8.68s CPU      3.86s WALL (       1 calls)
     electrons    :    720.27s CPU    266.44s WALL (       4 calls)
     update_pot   :      0.67s CPU      0.29s WALL (       3 calls)
     forces       :      5.45s CPU      2.19s WALL (       4 calls)
     stress       :     39.33s CPU     26.24s WALL (       4 calls)

     Called by init_run:
     wfcinit      :      7.58s CPU      2.81s WALL (       1 calls)
     wfcinit:atom :      0.17s CPU      0.06s WALL (      60 calls)
     wfcinit:wfcr :      6.43s CPU      2.40s WALL (      60 calls)
     potinit      :      0.36s CPU      0.37s WALL (       1 calls)
     hinit0       :      0.47s CPU      0.48s WALL (       1 calls)

     Called by electrons:
     c_bands      :    647.39s CPU    226.40s WALL (      36 calls)
     sum_band     :     63.20s CPU     32.65s WALL (      36 calls)
     v_of_rho     :      2.13s CPU      1.85s WALL (      38 calls)
     v_h          :      0.08s CPU      0.09s WALL (      38 calls)
     v_xc         :      3.13s CPU      2.29s WALL (      46 calls)
     newd         :      8.63s CPU      6.15s WALL (      38 calls)
     mix_rho      :      0.16s CPU      0.16s WALL (      36 calls)

     Called by c_bands:
     init_us_2    :     18.49s CPU      7.12s WALL (    4860 calls)
     cegterg      :    578.42s CPU    201.28s WALL (    2160 calls)

     Called by sum_band:
     sum_band:wei :      0.31s CPU      0.10s WALL (      36 calls)
     sum_band:loo :     40.38s CPU     24.40s WALL (      36 calls)
     sum_band:buf :      0.30s CPU      0.15s WALL (    2160 calls)
     sum_band:ini :      4.75s CPU      2.36s WALL (    2160 calls)
     sum_band:cal :      1.20s CPU      0.54s WALL (    2160 calls)
     sum_band:bec :      0.03s CPU      0.01s WALL (    2160 calls)
     addusdens    :     22.25s CPU      7.93s WALL (      36 calls)
                                        0.00s GPU  (      36 calls)
     addusd:skk   :      0.02s CPU      0.02s WALL (      36 calls)
                                        0.00s GPU  (      36 calls)

     Called by *egterg:
     cdiaghg      :     13.89s CPU      3.63s WALL (    7822 calls)
     cegterg:over :     15.92s CPU      2.20s WALL (    5962 calls)
     cegterg:upda :      6.70s CPU      1.38s WALL (    5962 calls)
     cegterg:last :     10.87s CPU      1.82s WALL (    4642 calls)
     h_psi        :    512.96s CPU    189.93s WALL (    8182 calls)
     s_psi        :      5.71s CPU      1.09s WALL (    8182 calls)
     g_psi        :      5.33s CPU      1.10s WALL (    5962 calls)

     Called by h_psi:
     h_psi:calbec :     12.95s CPU      2.66s WALL (    8182 calls)
     vloc_psi     :    492.15s CPU    185.34s WALL (    8182 calls)
     add_vuspsi   :      5.42s CPU      1.28s WALL (    8182 calls)

     General routines
     calbec       :     15.01s CPU      3.49s WALL (   11542 calls)
     fft          :      1.53s CPU      1.27s WALL (     591 calls)
     ffts         :      0.34s CPU      0.32s WALL (      74 calls)
     fftw         :    427.12s CPU    171.28s WALL (  229554 calls)
     interpolate  :      0.37s CPU      0.38s WALL (      38 calls)

     Parallel routines

     PWSCF        :  12m55.49s CPU   4m59.75s WALL


   This run was terminated on:  13:34:40  12Dec2024            

=------------------------------------------------------------------------------=
   JOB DONE.
=------------------------------------------------------------------------------=
