
     Program PWSCF v.7.3.1 starts on 12Dec2024 at 13:37:33 

     This program is part of the open-source Quantum ESPRESSO suite
     for quantum simulation of materials; please cite
         "P. Giannozzi et al., J. Phys.:Condens. Matter 21 395502 (2009);
         "P. Giannozzi et al., J. Phys.:Condens. Matter 29 465901 (2017);
         "P. Giannozzi et al., J. Chem. Phys. 152 154105 (2020);
          URL http://www.quantum-espresso.org", 
     in publications or presentations arising from this work. More details at
     http://www.quantum-espresso.org/quote

     Parallel version (MPI), running on     1 processors

     MPI processes distributed on     1 nodes
     24876 MiB available memory on the printing compute node when the environment starts

     Waiting for input...
     Reading input from standard input

     Current dimensions of program PWSCF are:
     Max number of different atomic species (ntypx) = 10
     Max number of k-points (npk) =  40000
     Max angular momentum in pseudopotentials (lmaxx) =  4
     Message from routine setup:
     using ibrav=0 with symmetry is DISCOURAGED, use correct ibrav instead

     Subspace diagonalization in iterative solution of the eigenvalue problem:
     a serial algorithm will be used


     G-vector sticks info
     --------------------
     sticks:   dense  smooth     PW     G-vecs:    dense   smooth      PW
     Sum         703     349    109                69899    24741    4271

     Using Slab Decomposition



     bravais-lattice index     =            0
     lattice parameter (alat)  =       6.0288  a.u.
     unit-cell volume          =     885.0514 (a.u.)^3
     number of atoms/cell      =            3
     number of atomic types    =            2
     number of electrons       =        26.00
     number of Kohn-Sham states=           17
     kinetic-energy cutoff     =      35.0000  Ry
     charge density cutoff     =     280.0000  Ry
     scf convergence threshold =      6.0E-10
     mixing beta               =       0.4000
     number of iterations used =            8  plain     mixing
     Exchange-correlation= SLA  PW   PSX  PSC
                           (   1   4  10   8   0   0   0)

     celldm(1)=   6.028823  celldm(2)=   0.000000  celldm(3)=   0.000000
     celldm(4)=   0.000000  celldm(5)=   0.000000  celldm(6)=   0.000000

     crystal axes: (cart. coord. in units of alat)
               a(1) = (   1.000000   0.000000   0.000000 )  
               a(2) = (  -0.500000   0.866025   0.000000 )  
               a(3) = (   0.000000   0.000000   4.663803 )  

     reciprocal axes: (cart. coord. in units 2 pi/alat)
               b(1) = (  1.000000  0.577350 -0.000000 )  
               b(2) = (  0.000000  1.154701  0.000000 )  
               b(3) = (  0.000000 -0.000000  0.214417 )  


     PseudoPot. # 1 for Mo read from file:
     ./Mo_ONCV_PBEsol-1.0.upf
     MD5 check sum: 5193ba6a20874d27c2ef80314d1b3445
     Pseudo is Norm-conserving, Zval = 14.0
     Generated using ONCVPSP code by D. R. Hamann
     Using radial grid of 1508 points,  6 beta functions with: 
                l(1) =   0
                l(2) =   0
                l(3) =   1
                l(4) =   1
                l(5) =   2
                l(6) =   2

     PseudoPot. # 2 for S  read from file:
     ./s_pbesol_v1.4.uspp.F.UPF
     MD5 check sum: 0ccfa86ec6eb59065d10aaae963ef2a7
     Pseudo is Ultrasoft + core correction, Zval =  6.0
     Generated by new atomic code, or converted to UPF format
     Using radial grid of  907 points,  6 beta functions with: 
                l(1) =   0
                l(2) =   0
                l(3) =   1
                l(4) =   1
                l(5) =   2
                l(6) =   2
     Q(r) pseudized with  8 coefficients,  rinner =    1.300   1.300   1.300
                                                       1.300   1.300

     atomic species   valence    mass     pseudopotential
     Mo               14.00    95.96000     Mo( 1.00)
     S                 6.00    32.06500     S ( 1.00)

     12 Sym. Ops. (no inversion) found ( 6 have fractional translation)


                                    s                        frac. trans.

      isym =  1     identity                                     

 cryst.   s( 1) = (     1          0          0      )
                  (     0          1          0      )
                  (     0          0          1      )

 cart.    s( 1) = (  1.0000000  0.0000000  0.0000000 )
                  (  0.0000000  1.0000000  0.0000000 )
                  (  0.0000000  0.0000000  1.0000000 )


      isym =  2     180 deg rotation - cart. axis [0,1,0]        

 cryst.   s( 2) = (    -1          0          0      )    f =( -0.0000010 )
                  (     1          1          0      )       (  0.0000000 )
                  (     0          0         -1      )       (  0.5000000 )

 cart.    s( 2) = ( -1.0000000  0.0000000  0.0000000 )    f =( -0.0000010 )
                  (  0.0000000  1.0000000  0.0000000 )       (  0.0000000 )
                  (  0.0000000  0.0000000 -1.0000000 )       (  2.3319013 )


      isym =  3     120 deg rotation - cryst. axis [0,0,1]       

 cryst.   s( 3) = (     0          1          0      )
                  (    -1         -1          0      )
                  (     0          0          1      )

 cart.    s( 3) = ( -0.5000000 -0.8660254  0.0000000 )
                  (  0.8660254 -0.5000000  0.0000000 )
                  (  0.0000000  0.0000000  1.0000000 )


      isym =  4     120 deg rotation - cryst. axis [0,0,-1]      

 cryst.   s( 4) = (    -1         -1          0      )
                  (     1          0          0      )
                  (     0          0          1      )

 cart.    s( 4) = ( -0.5000000  0.8660254  0.0000000 )
                  ( -0.8660254 -0.5000000  0.0000000 )
                  (  0.0000000  0.0000000  1.0000000 )


      isym =  5     180 deg rotation - cryst. axis [1,-1,0]      

 cryst.   s( 5) = (     0         -1          0      )    f =(  0.0000000 )
                  (    -1          0          0      )       (  0.0000000 )
                  (     0          0         -1      )       (  0.5000000 )

 cart.    s( 5) = (  0.5000000 -0.8660254  0.0000000 )    f =(  0.0000000 )
                  ( -0.8660254 -0.5000000  0.0000000 )       (  0.0000000 )
                  (  0.0000000  0.0000000 -1.0000000 )       (  2.3319013 )


      isym =  6     180 deg rotation - cryst. axis [2,1,0]       

 cryst.   s( 6) = (     1          1          0      )    f =(  0.0000000 )
                  (     0         -1          0      )       (  0.0000010 )
                  (     0          0         -1      )       (  0.5000000 )

 cart.    s( 6) = (  0.5000000  0.8660254  0.0000000 )    f =( -0.0000005 )
                  (  0.8660254 -0.5000000  0.0000000 )       (  0.0000009 )
                  (  0.0000000  0.0000000 -1.0000000 )       (  2.3319013 )


      isym =  7     inv. 180 deg rotation - cart. axis [0,0,1]   

 cryst.   s( 7) = (     1          0          0      )    f =(  0.0000000 )
                  (     0          1          0      )       (  0.0000000 )
                  (     0          0         -1      )       (  0.5000000 )

 cart.    s( 7) = (  1.0000000  0.0000000  0.0000000 )    f =(  0.0000000 )
                  (  0.0000000  1.0000000  0.0000000 )       (  0.0000000 )
                  (  0.0000000  0.0000000 -1.0000000 )       (  2.3319013 )


      isym =  8     inv. 180 deg rotation - cart. axis [1,0,0]   

 cryst.   s( 8) = (    -1          0          0      )
                  (     1          1          0      )
                  (     0          0          1      )

 cart.    s( 8) = ( -1.0000000  0.0000000  0.0000000 )
                  (  0.0000000  1.0000000  0.0000000 )
                  (  0.0000000  0.0000000  1.0000000 )


      isym =  9     inv.  60 deg rotation - cryst. axis [0,0,1]  

 cryst.   s( 9) = (    -1         -1          0      )    f =( -0.0000010 )
                  (     1          0          0      )       (  0.0000000 )
                  (     0          0         -1      )       (  0.5000000 )

 cart.    s( 9) = ( -0.5000000  0.8660254  0.0000000 )    f =( -0.0000010 )
                  ( -0.8660254 -0.5000000  0.0000000 )       (  0.0000000 )
                  (  0.0000000  0.0000000 -1.0000000 )       (  2.3319013 )


      isym = 10     inv.  60 deg rotation - cryst. axis [0,0,-1] 

 cryst.   s(10) = (     0          1          0      )    f =(  0.0000000 )
                  (    -1         -1          0      )       (  0.0000010 )
                  (     0          0         -1      )       (  0.5000000 )

 cart.    s(10) = ( -0.5000000 -0.8660254  0.0000000 )    f =( -0.0000005 )
                  (  0.8660254 -0.5000000  0.0000000 )       (  0.0000009 )
                  (  0.0000000  0.0000000 -1.0000000 )       (  2.3319013 )


      isym = 11     inv. 180 deg rotation - cryst. axis [0,1,0]  

 cryst.   s(11) = (     1          1          0      )
                  (     0         -1          0      )
                  (     0          0          1      )

 cart.    s(11) = (  0.5000000  0.8660254  0.0000000 )
                  (  0.8660254 -0.5000000  0.0000000 )
                  (  0.0000000  0.0000000  1.0000000 )


      isym = 12     inv. 180 deg rotation - cryst. axis [1,1,0]  

 cryst.   s(12) = (     0         -1          0      )
                  (    -1          0          0      )
                  (     0          0          1      )

 cart.    s(12) = (  0.5000000 -0.8660254  0.0000000 )
                  ( -0.8660254 -0.5000000  0.0000000 )
                  (  0.0000000  0.0000000  1.0000000 )


   Cartesian axes

     site n.     atom                  positions (alat units)
         1        Mo     tau(   1) = (   0.5000005   0.2886748   3.4978519  )
         2        S      tau(   2) = (  -0.0000005   0.5773506   3.0146135  )
         3        S      tau(   3) = (  -0.0000005   0.5773506   3.9810904  )

   Crystallographic axes

     site n.     atom                  positions (cryst. coord.)
         1        Mo     tau(   1) = (  0.6666670  0.3333330  0.7500000  )
         2        S      tau(   2) = (  0.3333330  0.6666670  0.6463853  )
         3        S      tau(   3) = (  0.3333330  0.6666670  0.8536147  )

     number of k points=    60  Marzari-Vanderbilt smearing, width (Ry)=  0.0200
                       cart. coord. in units 2pi/alat
        k(    1) = (   0.0000000   0.0000000   0.0000000), wk =   0.0026042
        k(    2) = (   0.0000000   0.0000000   0.0714724), wk =   0.0052083
        k(    3) = (   0.0000000   0.0721688   0.0000000), wk =   0.0156250
        k(    4) = (   0.0000000   0.0721688   0.0714724), wk =   0.0312500
        k(    5) = (   0.0000000   0.1443376   0.0000000), wk =   0.0156250
        k(    6) = (   0.0000000   0.1443376   0.0714724), wk =   0.0312500
        k(    7) = (   0.0000000   0.2165064   0.0000000), wk =   0.0156250
        k(    8) = (   0.0000000   0.2165064   0.0714724), wk =   0.0312500
        k(    9) = (   0.0000000   0.2886751   0.0000000), wk =   0.0156250
        k(   10) = (   0.0000000   0.2886751   0.0714724), wk =   0.0312500
        k(   11) = (   0.0000000   0.3608439   0.0000000), wk =   0.0156250
        k(   12) = (   0.0000000   0.3608439   0.0714724), wk =   0.0312500
        k(   13) = (   0.0000000   0.4330127   0.0000000), wk =   0.0156250
        k(   14) = (   0.0000000   0.4330127   0.0714724), wk =   0.0312500
        k(   15) = (   0.0000000   0.5051815   0.0000000), wk =   0.0156250
        k(   16) = (   0.0000000   0.5051815   0.0714724), wk =   0.0312500
        k(   17) = (   0.0000000  -0.5773503   0.0000000), wk =   0.0078125
        k(   18) = (   0.0000000  -0.5773503   0.0714724), wk =   0.0156250
        k(   19) = (   0.0625000   0.1082532   0.0000000), wk =   0.0156250
        k(   20) = (   0.0625000   0.1082532   0.0714724), wk =   0.0312500
        k(   21) = (   0.0625000   0.1804220   0.0000000), wk =   0.0312500
        k(   22) = (   0.0625000   0.1804220   0.0714724), wk =   0.0625000
        k(   23) = (   0.0625000   0.2525907   0.0000000), wk =   0.0312500
        k(   24) = (   0.0625000   0.2525907   0.0714724), wk =   0.0625000
        k(   25) = (   0.0625000   0.3247595   0.0000000), wk =   0.0312500
        k(   26) = (   0.0625000   0.3247595   0.0714724), wk =   0.0625000
        k(   27) = (   0.0625000   0.3969283   0.0000000), wk =   0.0312500
        k(   28) = (   0.0625000   0.3969283   0.0714724), wk =   0.0625000
        k(   29) = (   0.0625000   0.4690971   0.0000000), wk =   0.0312500
        k(   30) = (   0.0625000   0.4690971   0.0714724), wk =   0.0625000
        k(   31) = (   0.0625000   0.5412659   0.0000000), wk =   0.0312500
        k(   32) = (   0.0625000   0.5412659   0.0714724), wk =   0.0625000
        k(   33) = (   0.1250000   0.2165064   0.0000000), wk =   0.0156250
        k(   34) = (   0.1250000   0.2165064   0.0714724), wk =   0.0312500
        k(   35) = (   0.1250000   0.2886751   0.0000000), wk =   0.0312500
        k(   36) = (   0.1250000   0.2886751   0.0714724), wk =   0.0625000
        k(   37) = (   0.1250000   0.3608439   0.0000000), wk =   0.0312500
        k(   38) = (   0.1250000   0.3608439   0.0714724), wk =   0.0625000
        k(   39) = (   0.1250000   0.4330127   0.0000000), wk =   0.0312500
        k(   40) = (   0.1250000   0.4330127   0.0714724), wk =   0.0625000
        k(   41) = (   0.1250000   0.5051815   0.0000000), wk =   0.0312500
        k(   42) = (   0.1250000   0.5051815   0.0714724), wk =   0.0625000
        k(   43) = (   0.1250000   0.5773503   0.0000000), wk =   0.0156250
        k(   44) = (   0.1250000   0.5773503   0.0714724), wk =   0.0312500
        k(   45) = (   0.1875000   0.3247595   0.0000000), wk =   0.0156250
        k(   46) = (   0.1875000   0.3247595   0.0714724), wk =   0.0312500
        k(   47) = (   0.1875000   0.3969283   0.0000000), wk =   0.0312500
        k(   48) = (   0.1875000   0.3969283   0.0714724), wk =   0.0625000
        k(   49) = (   0.1875000   0.4690971   0.0000000), wk =   0.0312500
        k(   50) = (   0.1875000   0.4690971   0.0714724), wk =   0.0625000
        k(   51) = (   0.1875000   0.5412659   0.0000000), wk =   0.0312500
        k(   52) = (   0.1875000   0.5412659   0.0714724), wk =   0.0625000
        k(   53) = (   0.2500000   0.4330127   0.0000000), wk =   0.0156250
        k(   54) = (   0.2500000   0.4330127   0.0714724), wk =   0.0312500
        k(   55) = (   0.2500000   0.5051815   0.0000000), wk =   0.0312500
        k(   56) = (   0.2500000   0.5051815   0.0714724), wk =   0.0625000
        k(   57) = (   0.2500000   0.5773503   0.0000000), wk =   0.0156250
        k(   58) = (   0.2500000   0.5773503   0.0714724), wk =   0.0312500
        k(   59) = (   0.3125000   0.5412659   0.0000000), wk =   0.0156250
        k(   60) = (   0.3125000   0.5412659   0.0714724), wk =   0.0312500

                       cryst. coord.
        k(    1) = (   0.0000000   0.0000000   0.0000000), wk =   0.0026042
        k(    2) = (   0.0000000   0.0000000   0.3333333), wk =   0.0052083
        k(    3) = (   0.0000000   0.0625000   0.0000000), wk =   0.0156250
        k(    4) = (   0.0000000   0.0625000   0.3333333), wk =   0.0312500
        k(    5) = (   0.0000000   0.1250000   0.0000000), wk =   0.0156250
        k(    6) = (   0.0000000   0.1250000   0.3333333), wk =   0.0312500
        k(    7) = (   0.0000000   0.1875000   0.0000000), wk =   0.0156250
        k(    8) = (   0.0000000   0.1875000   0.3333333), wk =   0.0312500
        k(    9) = (   0.0000000   0.2500000   0.0000000), wk =   0.0156250
        k(   10) = (   0.0000000   0.2500000   0.3333333), wk =   0.0312500
        k(   11) = (   0.0000000   0.3125000   0.0000000), wk =   0.0156250
        k(   12) = (   0.0000000   0.3125000   0.3333333), wk =   0.0312500
        k(   13) = (   0.0000000   0.3750000   0.0000000), wk =   0.0156250
        k(   14) = (   0.0000000   0.3750000   0.3333333), wk =   0.0312500
        k(   15) = (   0.0000000   0.4375000   0.0000000), wk =   0.0156250
        k(   16) = (   0.0000000   0.4375000   0.3333333), wk =   0.0312500
        k(   17) = (   0.0000000  -0.5000000   0.0000000), wk =   0.0078125
        k(   18) = (   0.0000000  -0.5000000   0.3333333), wk =   0.0156250
        k(   19) = (   0.0625000   0.0625000   0.0000000), wk =   0.0156250
        k(   20) = (   0.0625000   0.0625000   0.3333333), wk =   0.0312500
        k(   21) = (   0.0625000   0.1250000   0.0000000), wk =   0.0312500
        k(   22) = (   0.0625000   0.1250000   0.3333333), wk =   0.0625000
        k(   23) = (   0.0625000   0.1875000   0.0000000), wk =   0.0312500
        k(   24) = (   0.0625000   0.1875000   0.3333333), wk =   0.0625000
        k(   25) = (   0.0625000   0.2500000   0.0000000), wk =   0.0312500
        k(   26) = (   0.0625000   0.2500000   0.3333333), wk =   0.0625000
        k(   27) = (   0.0625000   0.3125000   0.0000000), wk =   0.0312500
        k(   28) = (   0.0625000   0.3125000   0.3333333), wk =   0.0625000
        k(   29) = (   0.0625000   0.3750000   0.0000000), wk =   0.0312500
        k(   30) = (   0.0625000   0.3750000   0.3333333), wk =   0.0625000
        k(   31) = (   0.0625000   0.4375000   0.0000000), wk =   0.0312500
        k(   32) = (   0.0625000   0.4375000   0.3333333), wk =   0.0625000
        k(   33) = (   0.1250000   0.1250000   0.0000000), wk =   0.0156250
        k(   34) = (   0.1250000   0.1250000   0.3333333), wk =   0.0312500
        k(   35) = (   0.1250000   0.1875000   0.0000000), wk =   0.0312500
        k(   36) = (   0.1250000   0.1875000   0.3333333), wk =   0.0625000
        k(   37) = (   0.1250000   0.2500000   0.0000000), wk =   0.0312500
        k(   38) = (   0.1250000   0.2500000   0.3333333), wk =   0.0625000
        k(   39) = (   0.1250000   0.3125000   0.0000000), wk =   0.0312500
        k(   40) = (   0.1250000   0.3125000   0.3333333), wk =   0.0625000
        k(   41) = (   0.1250000   0.3750000   0.0000000), wk =   0.0312500
        k(   42) = (   0.1250000   0.3750000   0.3333333), wk =   0.0625000
        k(   43) = (   0.1250000   0.4375000   0.0000000), wk =   0.0156250
        k(   44) = (   0.1250000   0.4375000   0.3333333), wk =   0.0312500
        k(   45) = (   0.1875000   0.1875000   0.0000000), wk =   0.0156250
        k(   46) = (   0.1875000   0.1875000   0.3333333), wk =   0.0312500
        k(   47) = (   0.1875000   0.2500000   0.0000000), wk =   0.0312500
        k(   48) = (   0.1875000   0.2500000   0.3333333), wk =   0.0625000
        k(   49) = (   0.1875000   0.3125000   0.0000000), wk =   0.0312500
        k(   50) = (   0.1875000   0.3125000   0.3333333), wk =   0.0625000
        k(   51) = (   0.1875000   0.3750000   0.0000000), wk =   0.0312500
        k(   52) = (   0.1875000   0.3750000   0.3333333), wk =   0.0625000
        k(   53) = (   0.2500000   0.2500000   0.0000000), wk =   0.0156250
        k(   54) = (   0.2500000   0.2500000   0.3333333), wk =   0.0312500
        k(   55) = (   0.2500000   0.3125000   0.0000000), wk =   0.0312500
        k(   56) = (   0.2500000   0.3125000   0.3333333), wk =   0.0625000
        k(   57) = (   0.2500000   0.3750000   0.0000000), wk =   0.0156250
        k(   58) = (   0.2500000   0.3750000   0.3333333), wk =   0.0312500
        k(   59) = (   0.3125000   0.3125000   0.0000000), wk =   0.0156250
        k(   60) = (   0.3125000   0.3125000   0.3333333), wk =   0.0312500

     Dense  grid:    69899 G-vectors     FFT dimensions: (  36,  36, 150)

     Smooth grid:    24741 G-vectors     FFT dimensions: (  24,  24, 108)

     Dynamical RAM for                 wfc:       0.80 MB

     Dynamical RAM for     wfc (w. buffer):      48.97 MB

     Dynamical RAM for           str. fact:       2.13 MB

     Dynamical RAM for           local pot:       0.00 MB

     Dynamical RAM for          nlocal pot:       2.55 MB

     Dynamical RAM for                qrad:       2.69 MB

     Dynamical RAM for          rho,v,vnew:       7.65 MB

     Dynamical RAM for               rhoin:       2.55 MB

     Dynamical RAM for            rho*nmix:      17.07 MB

     Dynamical RAM for           G-vectors:       4.19 MB

     Dynamical RAM for          h,s,v(r/c):       0.05 MB

     Dynamical RAM for          <psi|beta>:       0.01 MB

     Dynamical RAM for                 psi:       1.61 MB

     Dynamical RAM for                hpsi:       1.61 MB

     Dynamical RAM for                spsi:       1.61 MB

     Dynamical RAM for      wfcinit/wfcrot:       1.71 MB

     Dynamical RAM for           addusdens:     200.52 MB

     Dynamical RAM for          addusforce:     203.19 MB

     Dynamical RAM for         addusstress:     214.38 MB

     Estimated static dynamical RAM per process >      81.35 MB

     Estimated max dynamical RAM per process >     312.79 MB

     Initial potential from superposition of free atoms

     starting charge      25.9990, renormalised to      26.0000

     negative rho (up, down):  2.750E-06 0.000E+00
     Starting wfcs are   18 randomized atomic wfcs

     total cpu time spent up to now is        3.8 secs

     Self-consistent Calculation

     iteration #  1     ecut=    35.00 Ry     beta= 0.40
     Davidson diagonalization with overlap

---- Real-time Memory Report at c_bands before calling an iterative solver
           267 MiB given to the printing process from OS
             0 MiB allocation reported by mallinfo(arena+hblkhd)
         24635 MiB available memory on the node where the printing process lives
------------------
     ethr =  1.00E-02,  avg # of iterations =  2.2

     Threshold (ethr) on eigenvalues was too large:
     Diagonalizing with lowered threshold

     Davidson diagonalization with overlap

---- Real-time Memory Report at c_bands before calling an iterative solver
           326 MiB given to the printing process from OS
             0 MiB allocation reported by mallinfo(arena+hblkhd)
         24640 MiB available memory on the node where the printing process lives
------------------
     ethr =  3.14E-04,  avg # of iterations =  2.7

     negative rho (up, down):  4.102E-06 0.000E+00

     total cpu time spent up to now is       17.9 secs

     WARNING: integrated charge=    26.00009689, expected=    26.00000000

     total energy              =    -185.35792705 Ry
     estimated scf accuracy    <       0.10762687 Ry

     iteration #  2     ecut=    35.00 Ry     beta= 0.40
     Davidson diagonalization with overlap

---- Real-time Memory Report at c_bands before calling an iterative solver
           336 MiB given to the printing process from OS
             0 MiB allocation reported by mallinfo(arena+hblkhd)
         24546 MiB available memory on the node where the printing process lives
------------------
     ethr =  4.14E-04,  avg # of iterations =  2.0

     negative rho (up, down):  6.369E-06 0.000E+00

     total cpu time spent up to now is       24.9 secs

     WARNING: integrated charge=    26.00007221, expected=    26.00000000

     total energy              =    -185.36459986 Ry
     estimated scf accuracy    <       0.05520723 Ry

     iteration #  3     ecut=    35.00 Ry     beta= 0.40
     Davidson diagonalization with overlap

---- Real-time Memory Report at c_bands before calling an iterative solver
           337 MiB given to the printing process from OS
             0 MiB allocation reported by mallinfo(arena+hblkhd)
         24571 MiB available memory on the node where the printing process lives
------------------
     ethr =  2.12E-04,  avg # of iterations =  2.0

     negative rho (up, down):  7.029E-06 0.000E+00

     total cpu time spent up to now is       31.1 secs

     WARNING: integrated charge=    26.00004731, expected=    26.00000000

     total energy              =    -185.37435233 Ry
     estimated scf accuracy    <       0.01504060 Ry

     iteration #  4     ecut=    35.00 Ry     beta= 0.40
     Davidson diagonalization with overlap

---- Real-time Memory Report at c_bands before calling an iterative solver
           338 MiB given to the printing process from OS
             0 MiB allocation reported by mallinfo(arena+hblkhd)
         24533 MiB available memory on the node where the printing process lives
------------------
     ethr =  5.78E-05,  avg # of iterations =  1.0

     negative rho (up, down):  8.097E-06 0.000E+00

     total cpu time spent up to now is       37.1 secs

     WARNING: integrated charge=    26.00001345, expected=    26.00000000

     total energy              =    -185.37578691 Ry
     estimated scf accuracy    <       0.00100000 Ry

     iteration #  5     ecut=    35.00 Ry     beta= 0.40
     Davidson diagonalization with overlap

---- Real-time Memory Report at c_bands before calling an iterative solver
           339 MiB given to the printing process from OS
             0 MiB allocation reported by mallinfo(arena+hblkhd)
         24571 MiB available memory on the node where the printing process lives
------------------
     ethr =  3.85E-06,  avg # of iterations =  2.8

     negative rho (up, down):  8.209E-06 0.000E+00

     total cpu time spent up to now is       44.5 secs

     WARNING: integrated charge=    26.00001052, expected=    26.00000000

     total energy              =    -185.37591564 Ry
     estimated scf accuracy    <       0.00016025 Ry

     iteration #  6     ecut=    35.00 Ry     beta= 0.40
     Davidson diagonalization with overlap

---- Real-time Memory Report at c_bands before calling an iterative solver
           339 MiB given to the printing process from OS
             0 MiB allocation reported by mallinfo(arena+hblkhd)
         24431 MiB available memory on the node where the printing process lives
------------------
     ethr =  6.16E-07,  avg # of iterations =  2.0

     negative rho (up, down):  8.304E-06 0.000E+00

     total cpu time spent up to now is       51.4 secs

     WARNING: integrated charge=    26.00000981, expected=    26.00000000

     total energy              =    -185.37595755 Ry
     estimated scf accuracy    <       0.00001915 Ry

     iteration #  7     ecut=    35.00 Ry     beta= 0.40
     Davidson diagonalization with overlap

---- Real-time Memory Report at c_bands before calling an iterative solver
           340 MiB given to the printing process from OS
             0 MiB allocation reported by mallinfo(arena+hblkhd)
         24506 MiB available memory on the node where the printing process lives
------------------
     ethr =  7.36E-08,  avg # of iterations =  2.1

     negative rho (up, down):  8.346E-06 0.000E+00

     total cpu time spent up to now is       58.0 secs

     WARNING: integrated charge=    26.00000963, expected=    26.00000000

     total energy              =    -185.37596054 Ry
     estimated scf accuracy    <       0.00000108 Ry

     iteration #  8     ecut=    35.00 Ry     beta= 0.40
     Davidson diagonalization with overlap

---- Real-time Memory Report at c_bands before calling an iterative solver
           341 MiB given to the printing process from OS
             0 MiB allocation reported by mallinfo(arena+hblkhd)
         24555 MiB available memory on the node where the printing process lives
------------------
     ethr =  4.16E-09,  avg # of iterations =  4.9

     negative rho (up, down):  8.381E-06 0.000E+00

     total cpu time spent up to now is       67.6 secs

     WARNING: integrated charge=    26.00000950, expected=    26.00000000

     total energy              =    -185.37596139 Ry
     estimated scf accuracy    <       0.00000048 Ry

     iteration #  9     ecut=    35.00 Ry     beta= 0.40
     Davidson diagonalization with overlap

---- Real-time Memory Report at c_bands before calling an iterative solver
           342 MiB given to the printing process from OS
             0 MiB allocation reported by mallinfo(arena+hblkhd)
         24526 MiB available memory on the node where the printing process lives
------------------
     ethr =  1.84E-09,  avg # of iterations =  2.0

     negative rho (up, down):  8.433E-06 0.000E+00

     total cpu time spent up to now is       74.6 secs

     WARNING: integrated charge=    26.00000948, expected=    26.00000000

     total energy              =    -185.37596147 Ry
     estimated scf accuracy    <       0.00000002 Ry

     iteration # 10     ecut=    35.00 Ry     beta= 0.40
     Davidson diagonalization with overlap

---- Real-time Memory Report at c_bands before calling an iterative solver
           343 MiB given to the printing process from OS
             0 MiB allocation reported by mallinfo(arena+hblkhd)
         24531 MiB available memory on the node where the printing process lives
------------------
     ethr =  7.63E-11,  avg # of iterations =  2.7

     negative rho (up, down):  8.457E-06 0.000E+00

     total cpu time spent up to now is       82.0 secs

     WARNING: integrated charge=    26.00000949, expected=    26.00000000

     total energy              =    -185.37596148 Ry
     estimated scf accuracy    <          5.6E-09 Ry

     iteration # 11     ecut=    35.00 Ry     beta= 0.40
     Davidson diagonalization with overlap

---- Real-time Memory Report at c_bands before calling an iterative solver
           343 MiB given to the printing process from OS
             0 MiB allocation reported by mallinfo(arena+hblkhd)
         24559 MiB available memory on the node where the printing process lives
------------------
     ethr =  2.15E-11,  avg # of iterations =  2.4

     negative rho (up, down):  8.507E-06 0.000E+00

     total cpu time spent up to now is       88.6 secs

     End of self-consistent calculation

          k = 0.0000 0.0000 0.0000 (  3089 PWs)   bands (ev):

   -60.1428 -34.3160 -34.1182 -34.1182 -13.4886 -12.0974  -5.0387  -2.1131
    -2.1131  -1.0559  -0.9673  -0.9673   0.7158   3.3882   3.3882   3.7003
     3.7004

     occupation numbers 
     1.0000   1.0000   1.0000   1.0000   1.0000   1.0000   1.0000   1.0000
     1.0000   1.0000   1.0000   1.0000   1.0001   0.0000   0.0000   0.0000
     0.0000

          k = 0.0000 0.0000 0.0715 (  3095 PWs)   bands (ev):

   -60.1428 -34.3160 -34.1182 -34.1182 -13.4886 -12.0974  -5.0387  -2.1131
    -2.1131  -1.0559  -0.9673  -0.9673   0.7158   3.3882   3.3882   3.7003
     3.7004

     occupation numbers 
     1.0000   1.0000   1.0000   1.0000   1.0000   1.0000   1.0000   1.0000
     1.0000   1.0000   1.0000   1.0000   1.0001   0.0000   0.0000   0.0000
     0.0000

          k = 0.0000 0.0722 0.0000 (  3101 PWs)   bands (ev):

   -60.1414 -34.3131 -34.1328 -34.1215 -13.4304 -12.0749  -4.9729  -2.2434
    -2.0515  -1.4795  -1.0616  -0.6248   0.6835   3.3002   3.4953   3.5330
     3.6308

     occupation numbers 
     1.0000   1.0000   1.0000   1.0000   1.0000   1.0000   1.0000   1.0000
     1.0000   1.0000   1.0000   1.0000   1.0001   0.0000   0.0000   0.0000
     0.0000

          k = 0.0000 0.0722 0.0715 (  3103 PWs)   bands (ev):

   -60.1414 -34.3131 -34.1328 -34.1215 -13.4304 -12.0749  -4.9729  -2.2434
    -2.0515  -1.4795  -1.0616  -0.6248   0.6835   3.3001   3.4953   3.5331
     3.6308

     occupation numbers 
     1.0000   1.0000   1.0000   1.0000   1.0000   1.0000   1.0000   1.0000
     1.0000   1.0000   1.0000   1.0000   1.0001   0.0000   0.0000   0.0000
     0.0000

          k = 0.0000 0.1443 0.0000 (  3102 PWs)   bands (ev):

   -60.1374 -34.3050 -34.1740 -34.1309 -13.2610 -12.0095  -4.7923  -2.5770
    -1.9726  -1.8737  -1.3060  -0.4131   0.5567   3.1784   3.1924   3.4501
     3.7705

     occupation numbers 
     1.0000   1.0000   1.0000   1.0000   1.0000   1.0000   1.0000   1.0000
     1.0000   1.0000   1.0000   1.0000   1.0000   0.0000   0.0000   0.0000
     0.0000

          k = 0.0000 0.1443 0.0715 (  3110 PWs)   bands (ev):

   -60.1374 -34.3050 -34.1740 -34.1309 -13.2610 -12.0095  -4.7923  -2.5770
    -1.9726  -1.8737  -1.3060  -0.4131   0.5568   3.1783   3.1926   3.4501
     3.7705

     occupation numbers 
     1.0000   1.0000   1.0000   1.0000   1.0000   1.0000   1.0000   1.0000
     1.0000   1.0000   1.0000   1.0000   1.0000   0.0000   0.0000   0.0000
     0.0000

          k = 0.0000 0.2165 0.0000 (  3098 PWs)   bands (ev):

   -60.1314 -34.2928 -34.2353 -34.1449 -12.9961 -11.9073  -4.5622  -2.9761
    -2.4730  -1.6229  -1.6007  -0.4364   0.2863   2.9336   3.2216   3.2447
     4.1164

     occupation numbers 
     1.0000   1.0000   1.0000   1.0000   1.0000   1.0000   1.0000   1.0000
     1.0000   1.0000   1.0000   1.0000   1.0000   0.0000   0.0000   0.0000
     0.0000

          k = 0.0000 0.2165 0.0715 (  3117 PWs)   bands (ev):

   -60.1314 -34.2928 -34.2353 -34.1449 -12.9961 -11.9073  -4.5623  -2.9761
    -2.4730  -1.6229  -1.6007  -0.4364   0.2863   2.9337   3.2216   3.2446
     4.1164

     occupation numbers 
     1.0000   1.0000   1.0000   1.0000   1.0000   1.0000   1.0000   1.0000
     1.0000   1.0000   1.0000   1.0000   1.0000   0.0000   0.0000   0.0000
     0.0000

          k = 0.0000 0.2887 0.0000 (  3104 PWs)   bands (ev):

   -60.1243 -34.3068 -34.2784 -34.1613 -12.6624 -11.7795  -4.4472  -3.2524
    -2.9665  -1.9446  -1.2699  -0.6272  -0.0728   2.8706   3.0111   3.5307
     4.4458

     occupation numbers 
     1.0000   1.0000   1.0000   1.0000   1.0000   1.0000   1.0000   1.0000
     1.0000   1.0000   1.0000   1.0000   1.0000   0.0000   0.0000   0.0000
     0.0000

          k = 0.0000 0.2887 0.0715 (  3109 PWs)   bands (ev):

   -60.1243 -34.3068 -34.2784 -34.1613 -12.6624 -11.7795  -4.4472  -3.2524
    -2.9665  -1.9446  -1.2699  -0.6272  -0.0728   2.8707   3.0111   3.5306
     4.4457

     occupation numbers 
     1.0000   1.0000   1.0000   1.0000   1.0000   1.0000   1.0000   1.0000
     1.0000   1.0000   1.0000   1.0000   1.0000   0.0000   0.0000   0.0000
     0.0000

          k = 0.0000 0.3608 0.0000 (  3106 PWs)   bands (ev):

   -60.1172 -34.3775 -34.2639 -34.1777 -12.2994 -11.6424  -4.6045  -3.4275
    -3.3051  -2.2269  -0.9335  -0.8505  -0.3230   2.8672   2.9621   3.9115
     4.7069

     occupation numbers 
     1.0000   1.0000   1.0000   1.0000   1.0000   1.0000   1.0000   1.0000
     1.0000   1.0000   1.0000   1.0000   1.0000   0.0000   0.0000   0.0000
     0.0000

          k = 0.0000 0.3608 0.0715 (  3097 PWs)   bands (ev):

   -60.1172 -34.3775 -34.2639 -34.1777 -12.2994 -11.6424  -4.6045  -3.4275
    -3.3051  -2.2269  -0.9335  -0.8506  -0.3230   2.8672   2.9621   3.9114
     4.7069

     occupation numbers 
     1.0000   1.0000   1.0000   1.0000   1.0000   1.0000   1.0000   1.0000
     1.0000   1.0000   1.0000   1.0000   1.0000   0.0000   0.0000   0.0000
     0.0000

          k = 0.0000 0.4330 0.0000 (  3092 PWs)   bands (ev):

   -60.1112 -34.4368 -34.2516 -34.1916 -11.9612 -11.5177  -4.8845  -3.8121
    -3.3405  -2.4432  -1.0249  -0.6510  -0.3065   2.8085   3.1260   4.2485
     4.8836

     occupation numbers 
     1.0000   1.0000   1.0000   1.0000   1.0000   1.0000   1.0000   1.0000
     1.0000   1.0000   1.0000   1.0000   1.0000   0.0000   0.0000   0.0000
     0.0000

          k = 0.0000 0.4330 0.0715 (  3095 PWs)   bands (ev):

   -60.1112 -34.4368 -34.2516 -34.1916 -11.9612 -11.5177  -4.8845  -3.8121
    -3.3405  -2.4432  -1.0249  -0.6510  -0.3065   2.8085   3.1260   4.2484
     4.8836

     occupation numbers 
     1.0000   1.0000   1.0000   1.0000   1.0000   1.0000   1.0000   1.0000
     1.0000   1.0000   1.0000   1.0000   1.0000   0.0000   0.0000   0.0000
     0.0000

          k = 0.0000 0.5052 0.0000 (  3102 PWs)   bands (ev):

   -60.1072 -34.4761 -34.2434 -34.2008 -11.7147 -11.4292  -5.1103  -4.0698
    -3.4321  -2.5782  -1.1278  -0.4688  -0.1190   2.8115   3.2888   4.4555
     4.9820

     occupation numbers 
     1.0000   1.0000   1.0000   1.0000   1.0000   1.0000   1.0000   1.0000
     1.0000   1.0000   1.0000   1.0000   1.0000   0.0000   0.0000   0.0000
     0.0000

          k = 0.0000 0.5052 0.0715 (  3099 PWs)   bands (ev):

   -60.1072 -34.4761 -34.2434 -34.2008 -11.7147 -11.4292  -5.1103  -4.0698
    -3.4321  -2.5782  -1.1278  -0.4688  -0.1190   2.8115   3.2888   4.4555
     4.9820

     occupation numbers 
     1.0000   1.0000   1.0000   1.0000   1.0000   1.0000   1.0000   1.0000
     1.0000   1.0000   1.0000   1.0000   1.0000   0.0000   0.0000   0.0000
     0.0000

          k = 0.0000-0.5774 0.0000 (  3092 PWs)   bands (ev):

   -60.1058 -34.4898 -34.2405 -34.2041 -11.6234 -11.3970  -5.1954  -4.1607
    -3.4798  -2.6240  -1.1611  -0.4070  -0.0138   2.8225   3.3630   4.5205
     5.0131

     occupation numbers 
     1.0000   1.0000   1.0000   1.0000   1.0000   1.0000   1.0000   1.0000
     1.0000   1.0000   1.0000   1.0000   1.0000   0.0000   0.0000   0.0000
     0.0000

          k = 0.0000-0.5774 0.0715 (  3098 PWs)   bands (ev):

   -60.1058 -34.4898 -34.2405 -34.2041 -11.6234 -11.3970  -5.1954  -4.1607
    -3.4798  -2.6240  -1.1611  -0.4070  -0.0138   2.8225   3.3630   4.5205
     5.0131

     occupation numbers 
     1.0000   1.0000   1.0000   1.0000   1.0000   1.0000   1.0000   1.0000
     1.0000   1.0000   1.0000   1.0000   1.0000   0.0000   0.0000   0.0000
     0.0000

          k = 0.0625 0.1083 0.0000 (  3105 PWs)   bands (ev):

   -60.1387 -34.3076 -34.1603 -34.1282 -13.3166 -12.0309  -4.8491  -2.4733
    -1.9337  -1.8233  -1.2686  -0.4204   0.6039   3.1768   3.2888   3.4984
     3.7032

     occupation numbers 
     1.0000   1.0000   1.0000   1.0000   1.0000   1.0000   1.0000   1.0000
     1.0000   1.0000   1.0000   1.0000   1.0000   0.0000   0.0000   0.0000
     0.0000

          k = 0.0625 0.1083 0.0715 (  3107 PWs)   bands (ev):

   -60.1387 -34.3076 -34.1603 -34.1282 -13.3166 -12.0309  -4.8491  -2.4733
    -1.9337  -1.8233  -1.2686  -0.4204   0.6040   3.1767   3.2890   3.4984
     3.7032

     occupation numbers 
     1.0000   1.0000   1.0000   1.0000   1.0000   1.0000   1.0000   1.0000
     1.0000   1.0000   1.0000   1.0000   1.0000   0.0000   0.0000   0.0000
     0.0000

          k = 0.0625 0.1804 0.0000 (  3107 PWs)   bands (ev):

   -60.1337 -34.2975 -34.2104 -34.1411 -13.0993 -11.9469  -4.6380  -2.8341
    -2.2491  -1.7172  -1.6193  -0.3137   0.4027   2.9980   3.1141   3.2929
     4.0429

     occupation numbers 
     1.0000   1.0000   1.0000   1.0000   1.0000   1.0000   1.0000   1.0000
     1.0000   1.0000   1.0000   1.0000   1.0000   0.0000   0.0000   0.0000
     0.0000

          k = 0.0625 0.1804 0.0715 (  3114 PWs)   bands (ev):

   -60.1337 -34.2975 -34.2104 -34.1411 -13.0993 -11.9469  -4.6380  -2.8341
    -2.2491  -1.7172  -1.6193  -0.3137   0.4027   2.9982   3.1140   3.2929
     4.0429

     occupation numbers 
     1.0000   1.0000   1.0000   1.0000   1.0000   1.0000   1.0000   1.0000
     1.0000   1.0000   1.0000   1.0000   1.0000   0.0000   0.0000   0.0000
     0.0000

          k = 0.0625 0.2526 0.0000 (  3105 PWs)   bands (ev):

   -60.1272 -34.2842 -34.2752 -34.1578 -12.7994 -11.8313  -4.4478  -3.1649
    -2.7166  -1.9739  -1.4417  -0.4076   0.0796   2.8169   3.1134   3.2682
     4.4001

     occupation numbers 
     1.0000   1.0000   1.0000   1.0000   1.0000   1.0000   1.0000   1.0000
     1.0000   1.0000   1.0000   1.0000   1.0000   0.0000   0.0000   0.0000
     0.0000

          k = 0.0625 0.2526 0.0715 (  3104 PWs)   bands (ev):

   -60.1272 -34.2842 -34.2752 -34.1578 -12.7994 -11.8313  -4.4478  -3.1649
    -2.7166  -1.9739  -1.4417  -0.4076   0.0796   2.8170   3.1135   3.2681
     4.4000

     occupation numbers 
     1.0000   1.0000   1.0000   1.0000   1.0000   1.0000   1.0000   1.0000
     1.0000   1.0000   1.0000   1.0000   1.0000   0.0000   0.0000   0.0000
     0.0000

          k = 0.0625 0.3248 0.0000 (  3108 PWs)   bands (ev):

   -60.1201 -34.3446 -34.2697 -34.1759 -12.4496 -11.6976  -4.4755  -3.2861
    -3.2058  -2.2518  -1.1768  -0.6288  -0.2141   2.7603   3.0398   3.5991
     4.6944

     occupation numbers 
     1.0000   1.0000   1.0000   1.0000   1.0000   1.0000   1.0000   1.0000
     1.0000   1.0000   1.0000   1.0000   1.0000   0.0000   0.0000   0.0000
     0.0000

          k = 0.0625 0.3248 0.0715 (  3096 PWs)   bands (ev):

   -60.1201 -34.3446 -34.2697 -34.1759 -12.4496 -11.6976  -4.4755  -3.2861
    -3.2058  -2.2518  -1.1768  -0.6288  -0.2141   2.7603   3.0398   3.5990
     4.6943

     occupation numbers 
     1.0000   1.0000   1.0000   1.0000   1.0000   1.0000   1.0000   1.0000
     1.0000   1.0000   1.0000   1.0000   1.0000   0.0000   0.0000   0.0000
     0.0000

          k = 0.0625 0.3969 0.0000 (  3094 PWs)   bands (ev):

   -60.1135 -34.4081 -34.2563 -34.1926 -12.0961 -11.5646  -4.7140  -3.6578
    -3.2862  -2.4415  -0.9872  -0.8643  -0.2631   2.7816   3.0865   3.9809
     4.8773

     occupation numbers 
     1.0000   1.0000   1.0000   1.0000   1.0000   1.0000   1.0000   1.0000
     1.0000   1.0000   1.0000   1.0000   1.0000   0.0000   0.0000   0.0000
     0.0000

          k = 0.0625 0.3969 0.0715 (  3088 PWs)   bands (ev):

   -60.1135 -34.4081 -34.2563 -34.1926 -12.0961 -11.5646  -4.7140  -3.6578
    -3.2862  -2.4415  -0.9871  -0.8644  -0.2631   2.7817   3.0866   3.9809
     4.8773

     occupation numbers 
     1.0000   1.0000   1.0000   1.0000   1.0000   1.0000   1.0000   1.0000
     1.0000   1.0000   1.0000   1.0000   1.0000   0.0000   0.0000   0.0000
     0.0000

          k = 0.0625 0.4691 0.0000 (  3099 PWs)   bands (ev):

   -60.1085 -34.4562 -34.2461 -34.2053 -11.7997 -11.4555  -4.9657  -4.0044
    -3.3596  -2.5569  -1.0449  -0.8305  -0.1004   2.8276   3.2183   4.3159
     4.9272

     occupation numbers 
     1.0000   1.0000   1.0000   1.0000   1.0000   1.0000   1.0000   1.0000
     1.0000   1.0000   1.0000   1.0000   1.0000   0.0000   0.0000   0.0000
     0.0000

          k = 0.0625 0.4691 0.0715 (  3093 PWs)   bands (ev):

   -60.1085 -34.4562 -34.2461 -34.2053 -11.7997 -11.4555  -4.9657  -4.0044
    -3.3596  -2.5569  -1.0449  -0.8305  -0.1004   2.8276   3.2183   4.3159
     4.9272

     occupation numbers 
     1.0000   1.0000   1.0000   1.0000   1.0000   1.0000   1.0000   1.0000
     1.0000   1.0000   1.0000   1.0000   1.0000   0.0000   0.0000   0.0000
     0.0000

          k = 0.0625 0.5413 0.0000 (  3100 PWs)   bands (ev):

   -60.1058 -34.4821 -34.2405 -34.2122 -11.6273 -11.3935  -5.1173  -4.1925
    -3.4468  -2.6110  -1.1401  -0.7240   0.0678   2.8425   3.3597   4.5465
     4.8748

     occupation numbers 
     1.0000   1.0000   1.0000   1.0000   1.0000   1.0000   1.0000   1.0000
     1.0000   1.0000   1.0000   1.0000   1.0000   0.0000   0.0000   0.0000
     0.0000

          k = 0.0625 0.5413 0.0715 (  3103 PWs)   bands (ev):

   -60.1058 -34.4821 -34.2405 -34.2122 -11.6273 -11.3935  -5.1173  -4.1925
    -3.4468  -2.6110  -1.1401  -0.7240   0.0678   2.8425   3.3597   4.5464
     4.8748

     occupation numbers 
     1.0000   1.0000   1.0000   1.0000   1.0000   1.0000   1.0000   1.0000
     1.0000   1.0000   1.0000   1.0000   1.0000   0.0000   0.0000   0.0000
     0.0000

          k = 0.1250 0.2165 0.0000 (  3113 PWs)   bands (ev):

   -60.1282 -34.2862 -34.2621 -34.1586 -12.8465 -11.8490  -4.4516  -3.1195
    -2.5512  -2.1073  -1.5186  -0.2538   0.1404   2.7894   3.1066   3.1477
     4.4188

     occupation numbers 
     1.0000   1.0000   1.0000   1.0000   1.0000   1.0000   1.0000   1.0000
     1.0000   1.0000   1.0000   1.0000   1.0000   0.0000   0.0000   0.0000
     0.0000

          k = 0.1250 0.2165 0.0715 (  3112 PWs)   bands (ev):

   -60.1282 -34.2862 -34.2621 -34.1586 -12.8465 -11.8490  -4.4516  -3.1195
    -2.5512  -2.1073  -1.5186  -0.2538   0.1404   2.7895   3.1066   3.1477
     4.4187

     occupation numbers 
     1.0000   1.0000   1.0000   1.0000   1.0000   1.0000   1.0000   1.0000
     1.0000   1.0000   1.0000   1.0000   1.0000   0.0000   0.0000   0.0000
     0.0000

          k = 0.1250 0.2887 0.0000 (  3099 PWs)   bands (ev):

   -60.1216 -34.3215 -34.2729 -34.1804 -12.5289 -11.7259  -4.3879  -3.2575
    -2.9857  -2.4513  -1.3762  -0.3621  -0.1305   2.6536   3.1072   3.2833
     4.7529

     occupation numbers 
     1.0000   1.0000   1.0000   1.0000   1.0000   1.0000   1.0000   1.0000
     1.0000   1.0000   1.0000   1.0000   1.0000   0.0000   0.0000   0.0000
     0.0000

          k = 0.1250 0.2887 0.0715 (  3099 PWs)   bands (ev):

   -60.1216 -34.3215 -34.2729 -34.1804 -12.5289 -11.7259  -4.3879  -3.2575
    -2.9857  -2.4513  -1.3762  -0.3621  -0.1305   2.6537   3.1072   3.2832
     4.7527

     occupation numbers 
     1.0000   1.0000   1.0000   1.0000   1.0000   1.0000   1.0000   1.0000
     1.0000   1.0000   1.0000   1.0000   1.0000   0.0000   0.0000   0.0000
     0.0000

          k = 0.1250 0.3608 0.0000 (  3092 PWs)   bands (ev):

   -60.1151 -34.3799 -34.2595 -34.2025 -12.1849 -11.5932  -4.5356  -3.5130
    -3.2157  -2.5820  -1.3762  -0.5991  -0.2166   2.6869   3.1238   3.6021
     4.9678

     occupation numbers 
     1.0000   1.0000   1.0000   1.0000   1.0000   1.0000   1.0000   1.0000
     1.0000   1.0000   1.0000   1.0000   1.0000   0.0000   0.0000   0.0000
     0.0000

          k = 0.1250 0.3608 0.0715 (  3094 PWs)   bands (ev):

   -60.1151 -34.3799 -34.2595 -34.2025 -12.1849 -11.5932  -4.5356  -3.5130
    -3.2157  -2.5820  -1.3762  -0.5991  -0.2166   2.6869   3.1238   3.6020
     4.9677

     occupation numbers 
     1.0000   1.0000   1.0000   1.0000   1.0000   1.0000   1.0000   1.0000
     1.0000   1.0000   1.0000   1.0000   1.0000   0.0000   0.0000   0.0000
     0.0000

          k = 0.1250 0.4330 0.0000 (  3081 PWs)   bands (ev):

   -60.1095 -34.4288 -34.2481 -34.2214 -11.8666 -11.4717  -4.7490  -3.9652
    -3.2311  -2.6107  -1.3885  -0.8654  -0.0974   2.8361   3.1747   3.9579
     5.0289

     occupation numbers 
     1.0000   1.0000   1.0000   1.0000   1.0000   1.0000   1.0000   1.0000
     1.0000   1.0000   1.0000   1.0000   1.0000   0.0000   0.0000   0.0000
     0.0000

          k = 0.1250 0.4330 0.0715 (  3077 PWs)   bands (ev):

   -60.1095 -34.4288 -34.2481 -34.2214 -11.8666 -11.4717  -4.7490  -3.9652
    -3.2311  -2.6107  -1.3885  -0.8654  -0.0974   2.8361   3.1747   3.9579
     5.0288

     occupation numbers 
     1.0000   1.0000   1.0000   1.0000   1.0000   1.0000   1.0000   1.0000
     1.0000   1.0000   1.0000   1.0000   1.0000   0.0000   0.0000   0.0000
     0.0000

          k = 0.1250 0.5052 0.0000 (  3095 PWs)   bands (ev):

   -60.1058 -34.4612 -34.2405 -34.2340 -11.6365 -11.3849  -4.9097  -4.2642
    -3.3460  -2.5935  -1.3343  -1.0728   0.0984   2.8506   3.3727   4.2693
     4.9532

     occupation numbers 
     1.0000   1.0000   1.0000   1.0000   1.0000   1.0000   1.0000   1.0000
     1.0000   1.0000   1.0000   1.0000   1.0000   0.0000   0.0000   0.0000
     0.0000

          k = 0.1250 0.5052 0.0715 (  3089 PWs)   bands (ev):

   -60.1058 -34.4612 -34.2405 -34.2340 -11.6365 -11.3849  -4.9097  -4.2642
    -3.3460  -2.5935  -1.3343  -1.0728   0.0984   2.8506   3.3727   4.2693
     4.9532

     occupation numbers 
     1.0000   1.0000   1.0000   1.0000   1.0000   1.0000   1.0000   1.0000
     1.0000   1.0000   1.0000   1.0000   1.0000   0.0000   0.0000   0.0000
     0.0000

          k = 0.1250 0.5774 0.0000 (  3108 PWs)   bands (ev):

   -60.1045 -34.4725 -34.2384 -34.2379 -11.5518 -11.3533  -4.9683  -4.3687
    -3.4087  -2.5794  -1.3036  -1.1523   0.2008   2.8096   3.5062   4.4255
     4.8683

     occupation numbers 
     1.0000   1.0000   1.0000   1.0000   1.0000   1.0000   1.0000   1.0000
     1.0000   1.0000   1.0000   1.0000   1.0000   0.0000   0.0000   0.0000
     0.0000

          k = 0.1250 0.5774 0.0715 (  3096 PWs)   bands (ev):

   -60.1045 -34.4725 -34.2384 -34.2379 -11.5518 -11.3533  -4.9683  -4.3687
    -3.4087  -2.5794  -1.3036  -1.1523   0.2008   2.8097   3.5062   4.4255
     4.8683

     occupation numbers 
     1.0000   1.0000   1.0000   1.0000   1.0000   1.0000   1.0000   1.0000
     1.0000   1.0000   1.0000   1.0000   1.0000   0.0000   0.0000   0.0000
     0.0000

          k = 0.1875 0.3248 0.0000 (  3096 PWs)   bands (ev):

   -60.1156 -34.3672 -34.2606 -34.2088 -12.2158 -11.6028  -4.4567  -3.4374
    -3.1788  -2.6748  -1.5434  -0.4664  -0.2049   2.6419   3.1433   3.4270
     5.0161

     occupation numbers 
     1.0000   1.0000   1.0000   1.0000   1.0000   1.0000   1.0000   1.0000
     1.0000   1.0000   1.0000   1.0000   1.0000   0.0000   0.0000   0.0000
     0.0000

          k = 0.1875 0.3248 0.0715 (  3098 PWs)   bands (ev):

   -60.1156 -34.3672 -34.2606 -34.2088 -12.2158 -11.6028  -4.4567  -3.4374
    -3.1788  -2.6748  -1.5434  -0.4664  -0.2050   2.6419   3.1433   3.4270
     5.0160

     occupation numbers 
     1.0000   1.0000   1.0000   1.0000   1.0000   1.0000   1.0000   1.0000
     1.0000   1.0000   1.0000   1.0000   1.0000   0.0000   0.0000   0.0000
     0.0000

          k = 0.1875 0.3969 0.0000 (  3085 PWs)   bands (ev):

   -60.1100 -34.4066 -34.2493 -34.2376 -11.9034 -11.4790  -4.5796  -3.9402
    -3.0844  -2.6790  -1.8269  -0.7059  -0.1197   2.8192   3.1692   3.6692
     5.1495

     occupation numbers 
     1.0000   1.0000   1.0000   1.0000   1.0000   1.0000   1.0000   1.0000
     1.0000   1.0000   1.0000   1.0000   1.0000   0.0000   0.0000   0.0000
     0.0000

          k = 0.1875 0.3969 0.0715 (  3084 PWs)   bands (ev):

   -60.1100 -34.4066 -34.2493 -34.2376 -11.9034 -11.4790  -4.5796  -3.9402
    -3.0844  -2.6790  -1.8269  -0.7059  -0.1197   2.8192   3.1692   3.6692
     5.1494

     occupation numbers 
     1.0000   1.0000   1.0000   1.0000   1.0000   1.0000   1.0000   1.0000
     1.0000   1.0000   1.0000   1.0000   1.0000   0.0000   0.0000   0.0000
     0.0000

          k = 0.1875 0.4691 0.0000 (  3091 PWs)   bands (ev):

   -60.1058 -34.4352 -34.2608 -34.2406 -11.6457 -11.3763  -4.6669  -4.3300
    -3.1679  -2.5927  -1.9734  -0.9827   0.0756   2.8215   3.4049   3.9101
     5.1741

     occupation numbers 
     1.0000   1.0000   1.0000   1.0000   1.0000   1.0000   1.0000   1.0000
     1.0000   1.0000   1.0000   1.0000   1.0000   0.0000   0.0000   0.0000
     0.0000

          k = 0.1875 0.4691 0.0715 (  3082 PWs)   bands (ev):

   -60.1058 -34.4352 -34.2608 -34.2406 -11.6457 -11.3763  -4.6668  -4.3300
    -3.1679  -2.5927  -1.9734  -0.9827   0.0756   2.8215   3.4049   3.9101
     5.1740

     occupation numbers 
     1.0000   1.0000   1.0000   1.0000   1.0000   1.0000   1.0000   1.0000
     1.0000   1.0000   1.0000   1.0000   1.0000   0.0000   0.0000   0.0000
     0.0000

          k = 0.1875 0.5413 0.0000 (  3085 PWs)   bands (ev):

   -60.1034 -34.4503 -34.2738 -34.2359 -11.4982 -11.3174  -4.6985  -4.5400
    -3.3192  -2.5027  -1.9911  -1.1780   0.2699   2.6698   3.7039   4.0611
     5.1506

     occupation numbers 
     1.0000   1.0000   1.0000   1.0000   1.0000   1.0000   1.0000   1.0000
     1.0000   1.0000   1.0000   1.0000   1.0000   0.0000   0.0000   0.0000
     0.0000

          k = 0.1875 0.5413 0.0715 (  3090 PWs)   bands (ev):

   -60.1035 -34.4503 -34.2738 -34.2359 -11.4982 -11.3174  -4.6985  -4.5400
    -3.3192  -2.5027  -1.9911  -1.1780   0.2699   2.6698   3.7039   4.0611
     5.1506

     occupation numbers 
     1.0000   1.0000   1.0000   1.0000   1.0000   1.0000   1.0000   1.0000
     1.0000   1.0000   1.0000   1.0000   1.0000   0.0000   0.0000   0.0000
     0.0000

          k = 0.2500 0.4330 0.0000 (  3082 PWs)   bands (ev):

   -60.1058 -34.4217 -34.2747 -34.2406 -11.6495 -11.3727  -4.5525  -4.3558
    -3.0028  -2.5964  -2.3299  -0.9389   0.0600   2.8033   3.4208   3.7664
     5.2716

     occupation numbers 
     1.0000   1.0000   1.0000   1.0000   1.0000   1.0000   1.0000   1.0000
     1.0000   1.0000   1.0000   1.0000   1.0000   0.0000   0.0000   0.0000
     0.0000

          k = 0.2500 0.4330 0.0715 (  3083 PWs)   bands (ev):

   -60.1058 -34.4217 -34.2747 -34.2406 -11.6495 -11.3727  -4.5525  -4.3558
    -3.0028  -2.5964  -2.3299  -0.9389   0.0600   2.8033   3.4208   3.7664
     5.2716

     occupation numbers 
     1.0000   1.0000   1.0000   1.0000   1.0000   1.0000   1.0000   1.0000
     1.0000   1.0000   1.0000   1.0000   1.0000   0.0000   0.0000   0.0000
     0.0000

          k = 0.2500 0.5052 0.0000 (  3086 PWs)   bands (ev):

   -60.1029 -34.4264 -34.3050 -34.2348 -11.4710 -11.2960  -4.6431  -4.4446
    -3.1499  -2.5951  -2.4426  -1.1979   0.3051   2.5517   3.8289   3.8324
     5.3579

     occupation numbers 
     1.0000   1.0000   1.0000   1.0000   1.0000   1.0000   1.0000   1.0000
     1.0000   1.0000   1.0000   1.0000   1.0000   0.0000   0.0000   0.0000
     0.0000

          k = 0.2500 0.5052 0.0715 (  3076 PWs)   bands (ev):

   -60.1029 -34.4264 -34.3050 -34.2348 -11.4710 -11.2960  -4.6431  -4.4446
    -3.1499  -2.5951  -2.4426  -1.1979   0.3051   2.5517   3.8289   3.8324
     5.3579

     occupation numbers 
     1.0000   1.0000   1.0000   1.0000   1.0000   1.0000   1.0000   1.0000
     1.0000   1.0000   1.0000   1.0000   1.0000   0.0000   0.0000   0.0000
     0.0000

          k = 0.2500 0.5774 0.0000 (  3082 PWs)   bands (ev):

   -60.1019 -34.4264 -34.3172 -34.2327 -11.4065 -11.2677  -4.7448  -4.3626
    -3.3149  -2.6273  -2.3548  -1.3240   0.4406   2.4025   3.8530   4.0228
     5.3909

     occupation numbers 
     1.0000   1.0000   1.0000   1.0000   1.0000   1.0000   1.0000   1.0000
     1.0000   1.0000   1.0000   1.0000   1.0000   0.0000   0.0000   0.0000
     0.0000

          k = 0.2500 0.5774 0.0715 (  3083 PWs)   bands (ev):

   -60.1019 -34.4264 -34.3172 -34.2327 -11.4065 -11.2677  -4.7448  -4.3626
    -3.3149  -2.6273  -2.3548  -1.3240   0.4406   2.4025   3.8530   4.0229
     5.3909

     occupation numbers 
     1.0000   1.0000   1.0000   1.0000   1.0000   1.0000   1.0000   1.0000
     1.0000   1.0000   1.0000   1.0000   1.0000   0.0000   0.0000   0.0000
     0.0000

          k = 0.3125 0.5413 0.0000 (  3070 PWs)   bands (ev):

   -60.1014 -34.4074 -34.3431 -34.2316 -11.3745 -11.2494  -4.8197  -4.1226
    -3.3638  -2.9240  -2.2750  -1.4017   0.5255   2.2706   3.7718   4.1507
     5.4942

     occupation numbers 
     1.0000   1.0000   1.0000   1.0000   1.0000   1.0000   1.0000   1.0000
     1.0000   1.0000   1.0000   1.0000   1.0000   0.0001   0.0000   0.0000
     0.0000

          k = 0.3125 0.5413 0.0715 (  3073 PWs)   bands (ev):

   -60.1014 -34.4074 -34.3431 -34.2316 -11.3745 -11.2494  -4.8197  -4.1226
    -3.3638  -2.9240  -2.2750  -1.4017   0.5255   2.2706   3.7718   4.1507
     5.4942

     occupation numbers 
     1.0000   1.0000   1.0000   1.0000   1.0000   1.0000   1.0000   1.0000
     1.0000   1.0000   1.0000   1.0000   1.0000   0.0001   0.0000   0.0000
     0.0000

     the Fermi energy is     1.6675 ev

     WARNING: integrated charge=    26.00000948, expected=    26.00000000

!    total energy              =    -185.37596148 Ry
     estimated scf accuracy    <          4.4E-10 Ry
     smearing contrib. (-TS)   =       0.00000014 Ry
     internal energy E=F+TS    =    -185.37596162 Ry

     The total energy is F=E-TS. E is the sum of the following terms:
     one-electron contribution =    -706.91757341 Ry
     hartree contribution      =     354.90285467 Ry
     xc contribution           =     -32.27237901 Ry
     ewald contribution        =     198.91113613 Ry

     convergence has been achieved in  11 iterations

     negative rho (up, down):  8.507E-06 0.000E+00

     Forces acting on atoms (cartesian axes, Ry/au):

     atom    1 type  1   force =     0.00000000    0.00000000    0.00000000
     atom    2 type  2   force =     0.00000000   -0.00000000   -0.00007197
     atom    3 type  2   force =     0.00000000   -0.00000000    0.00007197
     The non-local contrib.  to forces
     atom    1 type  1   force =     0.00000000   -0.00000000    0.00000000
     atom    2 type  2   force =    -0.00000000    0.00000000    0.27299886
     atom    3 type  2   force =    -0.00000000    0.00000000   -0.27299886
     The ionic contribution  to forces
     atom    1 type  1   force =    -0.00001763    0.00001018    0.00000000
     atom    2 type  2   force =     0.00000882   -0.00000509  -32.41916873
     atom    3 type  2   force =     0.00000882   -0.00000509   32.41916873
     The local contribution  to forces
     atom    1 type  1   force =    -0.00010305    0.00006891    0.00009173
     atom    2 type  2   force =     0.00001720   -0.00000968   32.15672103
     atom    3 type  2   force =     0.00001720   -0.00000968  -32.15670981
     The core correction contribution to forces
     atom    1 type  1   force =     0.00000000    0.00000000    0.00000000
     atom    2 type  2   force =    -0.00000162    0.00000087   -0.01057779
     atom    3 type  2   force =    -0.00000162    0.00000087    0.01057675
     The Hubbard contrib.    to forces
     atom    1 type  1   force =     0.00000000    0.00000000    0.00000000
     atom    2 type  2   force =     0.00000000    0.00000000    0.00000000
     atom    3 type  2   force =     0.00000000    0.00000000    0.00000000
     The SCF correction term to forces
     atom    1 type  1   force =    -0.00000000    0.00000000   -0.00000000
     atom    2 type  2   force =     0.00000000   -0.00000000   -0.00004025
     atom    3 type  2   force =    -0.00000000   -0.00000000    0.00004025

     Total force =     0.000102     Total SCF correction =     0.000057
     SCF correction compared to forces is large: reduce conv_thr to get better values


     Computing stress (Cartesian axis) and pressure


     negative rho (up, down):  8.507E-06 0.000E+00
          total   stress  (Ry/bohr**3)                   (kbar)     P=      -11.91
  -0.00012078   0.00000000  -0.00000000          -17.77        0.00       -0.00
   0.00000000  -0.00012078   0.00000000            0.00      -17.77        0.00
  -0.00000000   0.00000000  -0.00000124           -0.00        0.00       -0.18

     kinetic stress (kbar)   6386.26     -0.00      0.00
                               -0.00   6386.26      0.00
                                0.00      0.00   6472.32

     local   stress (kbar)-114699.67     -0.01      0.00
                               -0.01-114699.68     -0.00
                                0.00     -0.00 112443.06

     nonloc. stress (kbar)   3260.20      0.00      0.00
                                0.00   3260.20      0.00
                                0.00      0.00   3272.70

     hartree stress (kbar)  56164.53     -0.00      0.00
                               -0.00  56164.53     -0.00
                                0.00     -0.00 -53340.38

     exc-cor stress (kbar)    -89.01      0.00      0.00
                                0.00    -89.01      0.00
                                0.00      0.00    -90.71

     corecor stress (kbar)  -1298.59     -0.00      0.00
                               -0.00  -1298.59      0.00
                                0.00      0.00  -1301.30

     ewald   stress (kbar)  50258.51      0.01     -0.00
                                0.01  50258.52     -0.00
                               -0.00     -0.00 -67455.86

     hubbard stress (kbar)      0.00      0.00      0.00
                                0.00      0.00      0.00
                                0.00      0.00      0.00

     DFT-D   stress (kbar)      0.00      0.00      0.00
                                0.00      0.00      0.00
                                0.00      0.00      0.00

     XDM     stress (kbar)      0.00      0.00      0.00
                                0.00      0.00      0.00
                                0.00      0.00      0.00

     dft-nl  stress (kbar)      0.00      0.00      0.00
                                0.00      0.00      0.00
                                0.00      0.00      0.00

     TS-vdW  stress (kbar)      0.00      0.00      0.00
                                0.00      0.00      0.00
                                0.00      0.00      0.00

     MDB     stress (kbar)      0.00      0.00      0.00
                                0.00      0.00      0.00
                                0.00      0.00      0.00

     3D-RISM stress (kbar)      0.00      0.00      0.00
                                0.00      0.00      0.00
                                0.00      0.00      0.00


     Writing all to output data dir ./out/aiida.save/ :
     XML data file, charge density, pseudopotentials, collected wavefunctions

     init_run     :      8.43s CPU      3.71s WALL (       1 calls)
     electrons    :    227.87s CPU     84.77s WALL (       1 calls)
     forces       :      1.36s CPU      0.55s WALL (       1 calls)
     stress       :     10.02s CPU      6.71s WALL (       1 calls)

     Called by init_run:
     wfcinit      :      7.36s CPU      2.68s WALL (       1 calls)
     wfcinit:atom :      0.17s CPU      0.07s WALL (      60 calls)
     wfcinit:wfcr :      6.27s CPU      2.26s WALL (      60 calls)
     potinit      :      0.34s CPU      0.36s WALL (       1 calls)
     hinit0       :      0.48s CPU      0.48s WALL (       1 calls)

     Called by electrons:
     c_bands      :    203.38s CPU     71.10s WALL (      12 calls)
     sum_band     :     21.28s CPU     11.24s WALL (      12 calls)
     v_of_rho     :      0.52s CPU      0.54s WALL (      12 calls)
     v_h          :      0.03s CPU      0.03s WALL (      12 calls)
     v_xc         :      0.77s CPU      0.64s WALL (      14 calls)
     newd         :      2.82s CPU      2.00s WALL (      12 calls)
     mix_rho      :      0.05s CPU      0.05s WALL (      12 calls)

     Called by c_bands:
     init_us_2    :      6.38s CPU      2.40s WALL (    1620 calls)
     cegterg      :    180.87s CPU     62.91s WALL (     720 calls)

     Called by sum_band:
     sum_band:wei :      0.08s CPU      0.03s WALL (      12 calls)
     sum_band:loo :     13.74s CPU      8.52s WALL (      12 calls)
     sum_band:buf :      0.10s CPU      0.05s WALL (     720 calls)
     sum_band:ini :      1.55s CPU      0.79s WALL (     720 calls)
     sum_band:cal :      0.39s CPU      0.19s WALL (     720 calls)
     sum_band:bec :      0.01s CPU      0.01s WALL (     720 calls)
     addusdens    :      7.38s CPU      2.63s WALL (      12 calls)
                                        0.00s GPU  (      12 calls)
     addusd:skk   :      0.01s CPU      0.01s WALL (      12 calls)
                                        0.00s GPU  (      12 calls)

     Called by *egterg:
     cdiaghg      :      4.30s CPU      1.14s WALL (    2392 calls)
     cegterg:over :      5.17s CPU      0.71s WALL (    1732 calls)
     cegterg:upda :      2.09s CPU      0.43s WALL (    1732 calls)
     cegterg:last :      3.40s CPU      0.57s WALL (    1466 calls)
     h_psi        :    164.05s CPU     60.72s WALL (    2512 calls)
     s_psi        :      1.93s CPU      0.36s WALL (    2512 calls)
     g_psi        :      1.65s CPU      0.36s WALL (    1732 calls)

     Called by h_psi:
     h_psi:calbec :      4.44s CPU      0.93s WALL (    2512 calls)
     vloc_psi     :    157.11s CPU     59.15s WALL (    2512 calls)
     add_vuspsi   :      1.71s CPU      0.42s WALL (    2512 calls)

     General routines
     calbec       :      5.04s CPU      1.19s WALL (    3532 calls)
     fft          :      0.63s CPU      0.57s WALL (     180 calls)
     ffts         :      0.29s CPU      0.28s WALL (      24 calls)
     fftw         :    136.37s CPU     54.90s WALL (   76034 calls)
     interpolate  :      0.30s CPU      0.30s WALL (      12 calls)

     Parallel routines

     PWSCF        :   4m 7.96s CPU   1m35.95s WALL


   This run was terminated on:  13:39: 9  12Dec2024            

=------------------------------------------------------------------------------=
   JOB DONE.
=------------------------------------------------------------------------------=
