
     Program BANDS v.7.3.1 starts on 19Oct2024 at 11:30:11 

     This program is part of the open-source Quantum ESPRESSO suite
     for quantum simulation of materials; please cite
         "P. Giannozzi et al., J. Phys.:Condens. Matter 21 395502 (2009);
         "P. Giannozzi et al., J. Phys.:Condens. Matter 29 465901 (2017);
         "P. Giannozzi et al., J. Chem. Phys. 152 154105 (2020);
          URL http://www.quantum-espresso.org", 
     in publications or presentations arising from this work. More details at
     http://www.quantum-espresso.org/quote

     Parallel version (MPI), running on     1 processors

     MPI processes distributed on     1 nodes
     25200 MiB available memory on the printing compute node when the environment starts


     Reading xml data from directory:

     ./out/BaTiO3.save/
     file Ba.pbe-mt_fhi.UPF: wavefunction(s)  6p 5d 4f renormalized
     file Ti.pbe-mt_fhi.UPF: wavefunction(s)  4f renormalized
     file O.pbe-mt_fhi.UPF: wavefunction(s)  4f renormalized

     IMPORTANT: XC functional enforced from input :
     Exchange-correlation= PBE
                           (   1   4   3   4   0   0   0)
     Any further DFT definition will be discarded
     Please, verify this is what you really want


     G-vector sticks info
     --------------------
     sticks:   dense  smooth     PW     G-vecs:    dense   smooth      PW
     Sum         325     325    109                 4441     4441     847

     Using Slab Decomposition

     Reading collected, re-writing distributed wavefunctions
     high-symmetry point:  0.0417 0.0417 0.0414   x coordinate   0.0000
     high-symmetry point:  0.0417 0.0417 0.4549   x coordinate   0.4136
     high-symmetry point:  0.0417 0.1250 0.0414   x coordinate   0.4136
     high-symmetry point:  0.0417 0.1250 0.4549   x coordinate   0.8271
     high-symmetry point:  0.0417 0.2083 0.0414   x coordinate   0.8271
     high-symmetry point:  0.0417 0.2083 0.4549   x coordinate   1.2407
     high-symmetry point:  0.0417 0.2917 0.0414   x coordinate   1.2407
     high-symmetry point:  0.0417 0.2917 0.4549   x coordinate   1.6542
     high-symmetry point:  0.0417 0.3750 0.0414   x coordinate   1.6542
     high-symmetry point:  0.0417 0.3750 0.4549   x coordinate   2.0678
     high-symmetry point:  0.0417 0.4583 0.0414   x coordinate   2.0678
     high-symmetry point:  0.0417 0.4583 0.4549   x coordinate   2.4813
     high-symmetry point:  0.1250 0.1250 0.0414   x coordinate   2.4813
     high-symmetry point:  0.1250 0.1250 0.4549   x coordinate   2.8949
     high-symmetry point:  0.1250 0.2083 0.0414   x coordinate   2.8949
     high-symmetry point:  0.1250 0.2083 0.4549   x coordinate   3.3085
     high-symmetry point:  0.1250 0.2917 0.0414   x coordinate   3.3085
     high-symmetry point:  0.1250 0.2917 0.4549   x coordinate   3.7220
     high-symmetry point:  0.1250 0.3750 0.0414   x coordinate   3.7220
     high-symmetry point:  0.1250 0.3750 0.4549   x coordinate   4.1356
     high-symmetry point:  0.1250 0.4583 0.0414   x coordinate   4.1356
     high-symmetry point:  0.1250 0.4583 0.4549   x coordinate   4.5491
     high-symmetry point:  0.2083 0.2083 0.0414   x coordinate   4.5491
     high-symmetry point:  0.2083 0.2083 0.4549   x coordinate   4.9627
     high-symmetry point:  0.2083 0.2917 0.0414   x coordinate   4.9627
     high-symmetry point:  0.2083 0.2917 0.4549   x coordinate   5.3762
     high-symmetry point:  0.2083 0.3750 0.0414   x coordinate   5.3762
     high-symmetry point:  0.2083 0.3750 0.4549   x coordinate   5.7898
     high-symmetry point:  0.2083 0.4583 0.0414   x coordinate   5.7898
     high-symmetry point:  0.2083 0.4583 0.4549   x coordinate   6.2034
     high-symmetry point:  0.2917 0.2917 0.0414   x coordinate   6.2034
     high-symmetry point:  0.2917 0.2917 0.4549   x coordinate   6.6169
     high-symmetry point:  0.2917 0.3750 0.0414   x coordinate   6.6169
     high-symmetry point:  0.2917 0.3750 0.4549   x coordinate   7.0305
     high-symmetry point:  0.2917 0.4583 0.0414   x coordinate   7.0305
     high-symmetry point:  0.2917 0.4583 0.4549   x coordinate   7.4440
     high-symmetry point:  0.3750 0.3750 0.0414   x coordinate   7.4440
     high-symmetry point:  0.3750 0.3750 0.4549   x coordinate   7.8576
     high-symmetry point:  0.3750 0.4583 0.0414   x coordinate   7.8576
     high-symmetry point:  0.3750 0.4583 0.4549   x coordinate   8.2711
     high-symmetry point:  0.4583 0.4583 0.0414   x coordinate   8.2711
     high-symmetry point:  0.4583 0.4583 0.4549   x coordinate   8.6847

     Plottable bands (eV) written to file bands.dat.gnu
     Bands written to file bands.dat

 **************************************************************************

                    xk=(   0.04167,   0.04167,   0.04136  )

     point group C_s (m)    
     there are  2 classes
     the character table:

       E     s    
A'     1.00  1.00
A''    1.00 -1.00

     the symmetry operations in each class and the name of the first element:

     E        1
                                                                 
     s        2
                                                                 

     Band symmetry, C_s (m)     point group:

     e(  1 -  1) =    -16.74928  eV     1   --> A'             
     e(  2 -  2) =    -15.96590  eV     1   --> A''            
     e(  3 -  3) =    -15.93851  eV     1   --> A'             
     e(  4 -  4) =      3.28365  eV     1   --> A'             
     e(  5 -  5) =      3.39730  eV     1   --> A''            
     e(  6 -  6) =      3.43057  eV     1   --> A'             
     e(  7 -  7) =      5.74460  eV     1   --> A'             
     e(  8 -  8) =      5.74648  eV     1   --> A''            
     e(  9 -  9) =      5.87079  eV     1   --> A''            
     e( 10 - 10) =      6.67347  eV     1   --> A'             
     e( 11 - 11) =      6.85974  eV     1   --> A'             
     e( 12 - 12) =      6.88554  eV     1   --> A''            
     e( 13 - 13) =     10.98677  eV     1   --> A''            
     e( 14 - 14) =     11.01353  eV     1   --> A'             
     e( 15 - 15) =     11.11115  eV     1   --> A'             
     e( 16 - 16) =     11.13110  eV     1   --> A''            
     e( 17 - 17) =     11.22571  eV     1   --> A'             
     e( 18 - 18) =     11.48975  eV     1   --> A'             
     e( 19 - 19) =     14.30413  eV     1   --> A''            
     e( 20 - 20) =     14.47899  eV     1   --> A'             
     e( 21 - 21) =     16.10212  eV     1   --> A'             
     e( 22 - 22) =     16.15518  eV     1   --> A''            
     e( 23 - 23) =     16.20052  eV     1   --> A'             
     e( 24 - 24) =     18.21100  eV     1   --> A'             
     e( 25 - 25) =     18.22967  eV     1   --> A'             
     e( 26 - 26) =     19.37348  eV     1   --> A'             
     e( 27 - 27) =     19.39956  eV     1   --> A''            
     e( 28 - 28) =     19.41001  eV     1   --> A'             
     e( 29 - 29) =     19.58285  eV     1   --> A''            
     e( 30 - 30) =     19.63586  eV     1   --> A'             
     e( 31 - 31) =     19.75498  eV     1   --> A''            
     e( 32 - 32) =     25.33816  eV     1   --> A'             
     e( 33 - 33) =     25.51538  eV     1   --> A''            
     e( 34 - 34) =     25.55386  eV     1   --> A'             
     e( 35 - 35) =     30.41049  eV     1   --> A'             
     e( 36 - 36) =     30.81119  eV     1   --> A''            
     e( 37 - 37) =     30.95045  eV     1   --> A'             
     e( 38 - 38) =     31.49375  eV     1   --> A'             
     e( 39 - 39) =     31.59125  eV     1   --> A''            
     e( 40 - 40) =     32.40654  eV     1   --> A'             
     e( 41 - 41) =     32.55800  eV     1   --> A''            
     e( 42 - 42) =     32.62864  eV     1   --> A'             
     e( 43 - 43) =     33.37189  eV     1   --> A'             
     e( 44 - 44) =     33.88662  eV     1   --> A''            
     e( 45 - 45) =     34.21496  eV     1   --> A''            
     e( 46 - 46) =     34.22531  eV     1   --> A'             
     e( 47 - 47) =     37.75715  eV     1   --> A'             
     e( 48 - 48) =     38.20387  eV     1   --> A''            
     e( 49 - 49) =     38.22635  eV     1   --> A'             
     e( 50 - 50) =     38.85229  eV     1   --> A'             
     e( 51 - 51) =     40.58401  eV     1   --> A''            
     e( 52 - 52) =     40.64415  eV     1   --> A'             
     e( 53 - 53) =     41.13261  eV     1   --> A'             
     e( 54 - 54) =     41.81472  eV     1   --> A''            
     e( 55 - 55) =     41.86715  eV     1   --> A'             
     e( 56 - 56) =     42.16067  eV     1   --> A'             
     e( 57 - 57) =     42.69484  eV     1   --> A''            
     e( 58 - 58) =     43.13173  eV     1   --> A'             
     e( 59 - 59) =     43.18231  eV     1   --> A''            
     e( 60 - 60) =     43.52567  eV     1   --> A''            

 **************************************************************************

 **************************************************************************

                    xk=(   0.04167,   0.04167,   0.12407  )

     Band symmetry, C_s (m)     point group:

     e(  1 -  1) =    -16.70090  eV     1   --> A'             
     e(  2 -  2) =    -15.96187  eV     1   --> A''            
     e(  3 -  3) =    -15.94562  eV     1   --> A'             
     e(  4 -  4) =      3.19253  eV     1   --> A'             
     e(  5 -  5) =      3.41781  eV     1   --> A''            
     e(  6 -  6) =      3.46833  eV     1   --> A'             
     e(  7 -  7) =      5.51745  eV     1   --> A''            
     e(  8 -  8) =      5.63553  eV     1   --> A'             
     e(  9 -  9) =      5.87054  eV     1   --> A''            
     e( 10 - 10) =      6.04424  eV     1   --> A'             
     e( 11 - 11) =      6.67791  eV     1   --> A'             
     e( 12 - 12) =      6.74754  eV     1   --> A''            
     e( 13 - 13) =     11.15242  eV     1   --> A'             
     e( 14 - 14) =     11.28471  eV     1   --> A''            
     e( 15 - 15) =     11.31960  eV     1   --> A'             
     e( 16 - 16) =     11.58399  eV     1   --> A'             
     e( 17 - 17) =     11.74604  eV     1   --> A''            
     e( 18 - 18) =     11.98420  eV     1   --> A'             
     e( 19 - 19) =     14.40493  eV     1   --> A'             
     e( 20 - 20) =     14.45400  eV     1   --> A''            
     e( 21 - 21) =     15.90324  eV     1   --> A'             
     e( 22 - 22) =     16.37543  eV     1   --> A'             
     e( 23 - 23) =     16.45673  eV     1   --> A''            
     e( 24 - 24) =     18.31560  eV     1   --> A'             
     e( 25 - 25) =     18.35786  eV     1   --> A'             
     e( 26 - 26) =     19.21776  eV     1   --> A'             
     e( 27 - 27) =     19.39781  eV     1   --> A''            
     e( 28 - 28) =     19.41508  eV     1   --> A'             
     e( 29 - 29) =     19.57818  eV     1   --> A''            
     e( 30 - 30) =     19.67465  eV     1   --> A'             
     e( 31 - 31) =     19.67761  eV     1   --> A''            
     e( 32 - 32) =     25.02123  eV     1   --> A'             
     e( 33 - 33) =     25.34402  eV     1   --> A''            
     e( 34 - 34) =     25.35942  eV     1   --> A'             
     e( 35 - 35) =     29.53282  eV     1   --> A'             
     e( 36 - 36) =     29.90180  eV     1   --> A''            
     e( 37 - 37) =     30.20959  eV     1   --> A'             
     e( 38 - 38) =     31.32124  eV     1   --> A'             
     e( 39 - 39) =     31.62698  eV     1   --> A''            
     e( 40 - 40) =     32.50402  eV     1   --> A'             
     e( 41 - 41) =     32.87840  eV     1   --> A''            
     e( 42 - 42) =     32.91951  eV     1   --> A'             
     e( 43 - 43) =     33.35860  eV     1   --> A''            
     e( 44 - 44) =     33.62488  eV     1   --> A'             
     e( 45 - 45) =     34.17051  eV     1   --> A'             
     e( 46 - 46) =     34.20647  eV     1   --> A''            
     e( 47 - 47) =     37.90175  eV     1   --> A'             
     e( 48 - 48) =     38.37837  eV     1   --> A'             
     e( 49 - 49) =     38.67448  eV     1   --> A''            
     e( 50 - 50) =     38.76232  eV     1   --> A'             
     e( 51 - 51) =     40.60241  eV     1   --> A''            
     e( 52 - 52) =     40.78057  eV     1   --> A'             
     e( 53 - 53) =     41.70619  eV     1   --> A'             
     e( 54 - 54) =     42.10183  eV     1   --> A''            
     e( 55 - 55) =     42.10826  eV     1   --> A'             
     e( 56 - 56) =     42.69750  eV     1   --> A'             
     e( 57 - 57) =     42.73502  eV     1   --> A''            
     e( 58 - 58) =     43.43728  eV     1   --> A''            
     e( 59 - 59) =     43.52868  eV     1   --> A'             
     e( 60 - 60) =     43.90975  eV     1   --> A''            

 **************************************************************************

 **************************************************************************

                    xk=(   0.04167,   0.04167,   0.20678  )

     Band symmetry, C_s (m)     point group:

     e(  1 -  1) =    -16.61191  eV     1   --> A'             
     e(  2 -  2) =    -15.95669  eV     1   --> A'             
     e(  3 -  3) =    -15.95657  eV     1   --> A''            
     e(  4 -  4) =      3.06932  eV     1   --> A'             
     e(  5 -  5) =      3.39729  eV     1   --> A''            
     e(  6 -  6) =      3.46776  eV     1   --> A'             
     e(  7 -  7) =      5.26299  eV     1   --> A''            
     e(  8 -  8) =      5.29770  eV     1   --> A'             
     e(  9 -  9) =      5.64273  eV     1   --> A'             
     e( 10 - 10) =      5.76307  eV     1   --> A''            
     e( 11 - 11) =      6.41428  eV     1   --> A''            
     e( 12 - 12) =      6.49522  eV     1   --> A'             
     e( 13 - 13) =     11.23006  eV     1   --> A'             
     e( 14 - 14) =     11.81025  eV     1   --> A'             
     e( 15 - 15) =     11.86324  eV     1   --> A''            
     e( 16 - 16) =     12.28997  eV     1   --> A'             
     e( 17 - 17) =     12.45737  eV     1   --> A''            
     e( 18 - 18) =     12.67706  eV     1   --> A'             
     e( 19 - 19) =     14.64520  eV     1   --> A''            
     e( 20 - 20) =     15.19840  eV     1   --> A'             
     e( 21 - 21) =     15.49445  eV     1   --> A'             
     e( 22 - 22) =     16.70141  eV     1   --> A'             
     e( 23 - 23) =     16.73687  eV     1   --> A''            
     e( 24 - 24) =     18.39456  eV     1   --> A'             
     e( 25 - 25) =     18.45666  eV     1   --> A'             
     e( 26 - 26) =     19.23479  eV     1   --> A''            
     e( 27 - 27) =     19.34128  eV     1   --> A'             
     e( 28 - 28) =     19.47545  eV     1   --> A''            
     e( 29 - 29) =     19.56496  eV     1   --> A'             
     e( 30 - 30) =     19.61420  eV     1   --> A'             
     e( 31 - 31) =     19.61451  eV     1   --> A''            
     e( 32 - 32) =     24.22603  eV     1   --> A'             
     e( 33 - 33) =     25.08622  eV     1   --> A''            
     e( 34 - 34) =     25.10185  eV     1   --> A'             
     e( 35 - 35) =     28.42533  eV     1   --> A'             
     e( 36 - 36) =     28.66974  eV     1   --> A''            
     e( 37 - 37) =     29.19857  eV     1   --> A'             
     e( 38 - 38) =     31.36641  eV     1   --> A'             
     e( 39 - 39) =     31.45121  eV     1   --> A''            
     e( 40 - 40) =     31.98837  eV     1   --> A'             
     e( 41 - 41) =     32.57154  eV     1   --> A''            
     e( 42 - 42) =     33.06015  eV     1   --> A''            
     e( 43 - 43) =     33.13488  eV     1   --> A'             
     e( 44 - 44) =     33.94370  eV     1   --> A'             
     e( 45 - 45) =     34.23709  eV     1   --> A'             
     e( 46 - 46) =     34.31794  eV     1   --> A''            
     e( 47 - 47) =     37.62577  eV     1   --> A'             
     e( 48 - 48) =     39.15005  eV     1   --> A'             
     e( 49 - 49) =     39.25943  eV     1   --> A''            
     e( 50 - 50) =     39.26803  eV     1   --> A'             
     e( 51 - 51) =     40.75931  eV     1   --> A''            
     e( 52 - 52) =     41.08616  eV     1   --> A'             
     e( 53 - 53) =     41.76643  eV     1   --> A'             
     e( 54 - 54) =     42.29809  eV     1   --> A''            
     e( 55 - 55) =     42.63618  eV     1   --> A'             
     e( 56 - 56) =     43.12630  eV     1   --> A''            
     e( 57 - 57) =     43.51426  eV     1   --> A''            
     e( 58 - 58) =     43.71545  eV     1   --> A'             
     e( 59 - 59) =     44.20376  eV     1   --> A'             
     e( 60 - 60) =     44.46425  eV     1   --> A''            

 **************************************************************************

 **************************************************************************

                    xk=(   0.04167,   0.04167,   0.28949  )

     Band symmetry, C_s (m)     point group:

     e(  1 -  1) =    -16.49734  eV     1   --> A'             
     e(  2 -  2) =    -15.98413  eV     1   --> A'             
     e(  3 -  3) =    -15.95235  eV     1   --> A''            
     e(  4 -  4) =      2.90154  eV     1   --> A'             
     e(  5 -  5) =      3.36574  eV     1   --> A'             
     e(  6 -  6) =      3.37782  eV     1   --> A''            
     e(  7 -  7) =      4.85064  eV     1   --> A'             
     e(  8 -  8) =      5.00209  eV     1   --> A''            
     e(  9 -  9) =      5.38327  eV     1   --> A'             
     e( 10 - 10) =      5.53932  eV     1   --> A''            
     e( 11 - 11) =      6.26197  eV     1   --> A'             
     e( 12 - 12) =      6.33653  eV     1   --> A''            
     e( 13 - 13) =     11.48269  eV     1   --> A'             
     e( 14 - 14) =     12.49284  eV     1   --> A'             
     e( 15 - 15) =     12.65456  eV     1   --> A''            
     e( 16 - 16) =     13.14736  eV     1   --> A'             
     e( 17 - 17) =     13.26880  eV     1   --> A'             
     e( 18 - 18) =     13.36687  eV     1   --> A''            
     e( 19 - 19) =     14.56500  eV     1   --> A''            
     e( 20 - 20) =     15.09480  eV     1   --> A'             
     e( 21 - 21) =     16.06128  eV     1   --> A'             
     e( 22 - 22) =     17.05222  eV     1   --> A''            
     e( 23 - 23) =     17.07331  eV     1   --> A'             
     e( 24 - 24) =     18.17237  eV     1   --> A'             
     e( 25 - 25) =     18.59023  eV     1   --> A'             
     e( 26 - 26) =     18.80285  eV     1   --> A''            
     e( 27 - 27) =     19.36446  eV     1   --> A'             
     e( 28 - 28) =     19.42272  eV     1   --> A''            
     e( 29 - 29) =     19.52441  eV     1   --> A''            
     e( 30 - 30) =     19.54024  eV     1   --> A'             
     e( 31 - 31) =     20.33725  eV     1   --> A'             
     e( 32 - 32) =     23.02732  eV     1   --> A'             
     e( 33 - 33) =     24.87248  eV     1   --> A'             
     e( 34 - 34) =     24.90375  eV     1   --> A''            
     e( 35 - 35) =     27.35332  eV     1   --> A'             
     e( 36 - 36) =     27.60364  eV     1   --> A''            
     e( 37 - 37) =     28.15719  eV     1   --> A'             
     e( 38 - 38) =     31.07608  eV     1   --> A'             
     e( 39 - 39) =     31.10271  eV     1   --> A''            
     e( 40 - 40) =     31.58683  eV     1   --> A'             
     e( 41 - 41) =     32.11663  eV     1   --> A''            
     e( 42 - 42) =     32.87432  eV     1   --> A''            
     e( 43 - 43) =     33.12359  eV     1   --> A'             
     e( 44 - 44) =     34.08893  eV     1   --> A'             
     e( 45 - 45) =     34.48500  eV     1   --> A''            
     e( 46 - 46) =     34.51591  eV     1   --> A'             
     e( 47 - 47) =     37.51291  eV     1   --> A'             
     e( 48 - 48) =     39.65310  eV     1   --> A'             
     e( 49 - 49) =     39.76784  eV     1   --> A''            
     e( 50 - 50) =     40.27037  eV     1   --> A'             
     e( 51 - 51) =     41.09226  eV     1   --> A''            
     e( 52 - 52) =     41.48347  eV     1   --> A'             
     e( 53 - 53) =     41.92840  eV     1   --> A'             
     e( 54 - 54) =     42.39585  eV     1   --> A''            
     e( 55 - 55) =     42.87257  eV     1   --> A'             
     e( 56 - 56) =     43.35499  eV     1   --> A''            
     e( 57 - 57) =     43.48325  eV     1   --> A'             
     e( 58 - 58) =     43.57955  eV     1   --> A''            
     e( 59 - 59) =     45.04296  eV     1   --> A''            
     e( 60 - 60) =     45.04449  eV     1   --> A'             

 **************************************************************************

 **************************************************************************

                    xk=(   0.04167,   0.04167,   0.37220  )

     Band symmetry, C_s (m)     point group:

     e(  1 -  1) =    -16.37678  eV     1   --> A'             
     e(  2 -  2) =    -16.03166  eV     1   --> A'             
     e(  3 -  3) =    -15.94961  eV     1   --> A''            
     e(  4 -  4) =      2.70210  eV     1   --> A'             
     e(  5 -  5) =      3.21087  eV     1   --> A'             
     e(  6 -  6) =      3.25074  eV     1   --> A''            
     e(  7 -  7) =      4.38746  eV     1   --> A'             
     e(  8 -  8) =      4.72448  eV     1   --> A''            
     e(  9 -  9) =      5.28942  eV     1   --> A'             
     e( 10 - 10) =      5.34249  eV     1   --> A''            
     e( 11 - 11) =      6.14138  eV     1   --> A'             
     e( 12 - 12) =      6.17106  eV     1   --> A''            
     e( 13 - 13) =     11.63799  eV     1   --> A'             
     e( 14 - 14) =     13.18008  eV     1   --> A'             
     e( 15 - 15) =     13.29108  eV     1   --> A''            
     e( 16 - 16) =     13.54487  eV     1   --> A'             
     e( 17 - 17) =     13.82682  eV     1   --> A'             
     e( 18 - 18) =     14.03916  eV     1   --> A''            
     e( 19 - 19) =     14.43301  eV     1   --> A''            
     e( 20 - 20) =     14.73716  eV     1   --> A'             
     e( 21 - 21) =     16.36807  eV     1   --> A'             
     e( 22 - 22) =     17.03633  eV     1   --> A''            
     e( 23 - 23) =     17.15553  eV     1   --> A'             
     e( 24 - 24) =     18.16079  eV     1   --> A'             
     e( 25 - 25) =     18.29816  eV     1   --> A''            
     e( 26 - 26) =     18.67534  eV     1   --> A'             
     e( 27 - 27) =     19.19617  eV     1   --> A'             
     e( 28 - 28) =     19.27651  eV     1   --> A''            
     e( 29 - 29) =     19.41346  eV     1   --> A''            
     e( 30 - 30) =     19.45860  eV     1   --> A'             
     e( 31 - 31) =     21.45456  eV     1   --> A'             
     e( 32 - 32) =     21.68208  eV     1   --> A'             
     e( 33 - 33) =     24.79343  eV     1   --> A'             
     e( 34 - 34) =     24.81941  eV     1   --> A''            
     e( 35 - 35) =     26.29930  eV     1   --> A'             
     e( 36 - 36) =     26.52602  eV     1   --> A''            
     e( 37 - 37) =     26.99262  eV     1   --> A'             
     e( 38 - 38) =     30.27954  eV     1   --> A'             
     e( 39 - 39) =     30.66767  eV     1   --> A''            
     e( 40 - 40) =     31.68340  eV     1   --> A'             
     e( 41 - 41) =     31.86955  eV     1   --> A''            
     e( 42 - 42) =     32.63682  eV     1   --> A''            
     e( 43 - 43) =     32.98095  eV     1   --> A'             
     e( 44 - 44) =     34.18341  eV     1   --> A'             
     e( 45 - 45) =     34.54870  eV     1   --> A''            
     e( 46 - 46) =     34.83864  eV     1   --> A'             
     e( 47 - 47) =     37.49679  eV     1   --> A'             
     e( 48 - 48) =     40.01517  eV     1   --> A'             
     e( 49 - 49) =     40.15889  eV     1   --> A''            
     e( 50 - 50) =     40.88604  eV     1   --> A'             
     e( 51 - 51) =     41.45939  eV     1   --> A''            
     e( 52 - 52) =     41.75294  eV     1   --> A'             
     e( 53 - 53) =     42.15380  eV     1   --> A'             
     e( 54 - 54) =     42.42004  eV     1   --> A''            
     e( 55 - 55) =     42.89519  eV     1   --> A'             
     e( 56 - 56) =     43.08755  eV     1   --> A''            
     e( 57 - 57) =     43.10926  eV     1   --> A'             
     e( 58 - 58) =     43.62173  eV     1   --> A''            
     e( 59 - 59) =     45.80923  eV     1   --> A''            
     e( 60 - 60) =     45.86973  eV     1   --> A'             

 **************************************************************************

 **************************************************************************

                    xk=(   0.04167,   0.04167,   0.45491  )

     Band symmetry, C_s (m)     point group:

     e(  1 -  1) =    -16.28026  eV     1   --> A'             
     e(  2 -  2) =    -16.08749  eV     1   --> A'             
     e(  3 -  3) =    -15.94807  eV     1   --> A''            
     e(  4 -  4) =      2.51675  eV     1   --> A'             
     e(  5 -  5) =      3.08467  eV     1   --> A''            
     e(  6 -  6) =      3.10987  eV     1   --> A'             
     e(  7 -  7) =      4.17082  eV     1   --> A'             
     e(  8 -  8) =      4.38381  eV     1   --> A''            
     e(  9 -  9) =      5.07668  eV     1   --> A'             
     e( 10 - 10) =      5.21508  eV     1   --> A''            
     e( 11 - 11) =      6.00141  eV     1   --> A'             
     e( 12 - 12) =      6.18154  eV     1   --> A''            
     e( 13 - 13) =     11.54404  eV     1   --> A'             
     e( 14 - 14) =     13.51678  eV     1   --> A'             
     e( 15 - 15) =     13.69450  eV     1   --> A'             
     e( 16 - 16) =     13.75010  eV     1   --> A''            
     e( 17 - 17) =     14.04508  eV     1   --> A'             
     e( 18 - 18) =     14.20023  eV     1   --> A''            
     e( 19 - 19) =     14.34146  eV     1   --> A''            
     e( 20 - 20) =     14.51876  eV     1   --> A'             
     e( 21 - 21) =     16.28503  eV     1   --> A'             
     e( 22 - 22) =     16.86709  eV     1   --> A''            
     e( 23 - 23) =     16.99752  eV     1   --> A'             
     e( 24 - 24) =     17.92683  eV     1   --> A''            
     e( 25 - 25) =     18.44918  eV     1   --> A'             
     e( 26 - 26) =     18.67116  eV     1   --> A'             
     e( 27 - 27) =     18.99935  eV     1   --> A'             
     e( 28 - 28) =     19.03857  eV     1   --> A''            
     e( 29 - 29) =     19.34467  eV     1   --> A'             
     e( 30 - 30) =     19.34952  eV     1   --> A''            
     e( 31 - 31) =     20.40160  eV     1   --> A'             
     e( 32 - 32) =     22.59931  eV     1   --> A'             
     e( 33 - 33) =     24.88198  eV     1   --> A'             
     e( 34 - 34) =     24.97411  eV     1   --> A''            
     e( 35 - 35) =     25.26052  eV     1   --> A'             
     e( 36 - 36) =     25.77226  eV     1   --> A''            
     e( 37 - 37) =     25.99630  eV     1   --> A'             
     e( 38 - 38) =     29.82813  eV     1   --> A'             
     e( 39 - 39) =     30.39512  eV     1   --> A''            
     e( 40 - 40) =     31.57308  eV     1   --> A'             
     e( 41 - 41) =     31.74694  eV     1   --> A''            
     e( 42 - 42) =     32.43524  eV     1   --> A''            
     e( 43 - 43) =     32.88558  eV     1   --> A'             
     e( 44 - 44) =     34.06197  eV     1   --> A'             
     e( 45 - 45) =     34.56093  eV     1   --> A''            
     e( 46 - 46) =     35.03847  eV     1   --> A'             
     e( 47 - 47) =     37.50349  eV     1   --> A'             
     e( 48 - 48) =     40.16250  eV     1   --> A'             
     e( 49 - 49) =     40.39586  eV     1   --> A''            
     e( 50 - 50) =     40.72339  eV     1   --> A'             
     e( 51 - 51) =     41.78329  eV     1   --> A''            
     e( 52 - 52) =     42.08043  eV     1   --> A'             
     e( 53 - 53) =     42.40109  eV     1   --> A''            
     e( 54 - 54) =     42.62651  eV     1   --> A'             
     e( 55 - 55) =     42.64701  eV     1   --> A''            
     e( 56 - 56) =     42.92364  eV     1   --> A'             
     e( 57 - 57) =     43.34408  eV     1   --> A'             
     e( 58 - 58) =     43.60753  eV     1   --> A''            
     e( 59 - 59) =     45.50457  eV     1   --> A'             
     e( 60 - 60) =     46.28570  eV     1   --> A'             

 **************************************************************************

 **************************************************************************

                    xk=(   0.04167,   0.12500,   0.04136  )

     point group C_1 (1)    
     there are  1 classes
     the character table:

       E    
A      1.00

     the symmetry operations in each class and the name of the first element:

     E        1
                                                                 

     Band symmetry, C_1 (1)     point group:

     e(  1 -  1) =    -16.69986  eV     1   --> A              
     e(  2 -  2) =    -15.96946  eV     1   --> A              
     e(  3 -  3) =    -15.93878  eV     1   --> A              
     e(  4 -  4) =      3.21516  eV     1   --> A              
     e(  5 -  5) =      3.41485  eV     1   --> A              
     e(  6 -  6) =      3.47715  eV     1   --> A              
     e(  7 -  7) =      5.48579  eV     1   --> A              
     e(  8 -  8) =      5.59899  eV     1   --> A              
     e(  9 -  9) =      5.83850  eV     1   --> A              
     e( 10 - 10) =      5.98839  eV     1   --> A              
     e( 11 - 11) =      6.63071  eV     1   --> A              
     e( 12 - 12) =      6.72985  eV     1   --> A              
     e( 13 - 13) =     11.15297  eV     1   --> A              
     e( 14 - 14) =     11.25611  eV     1   --> A              
     e( 15 - 15) =     11.33233  eV     1   --> A              
     e( 16 - 16) =     11.55666  eV     1   --> A              
     e( 17 - 17) =     11.75938  eV     1   --> A              
     e( 18 - 18) =     11.95728  eV     1   --> A              
     e( 19 - 19) =     14.32137  eV     1   --> A              
     e( 20 - 20) =     14.42950  eV     1   --> A              
     e( 21 - 21) =     15.93034  eV     1   --> A              
     e( 22 - 22) =     16.35195  eV     1   --> A              
     e( 23 - 23) =     16.42510  eV     1   --> A              
     e( 24 - 24) =     18.31768  eV     1   --> A              
     e( 25 - 25) =     18.37224  eV     1   --> A              
     e( 26 - 26) =     19.21547  eV     1   --> A              
     e( 27 - 27) =     19.33122  eV     1   --> A              
     e( 28 - 28) =     19.41072  eV     1   --> A              
     e( 29 - 29) =     19.57986  eV     1   --> A              
     e( 30 - 30) =     19.62784  eV     1   --> A              
     e( 31 - 31) =     19.67506  eV     1   --> A              
     e( 32 - 32) =     25.18846  eV     1   --> A              
     e( 33 - 33) =     25.24272  eV     1   --> A              
     e( 34 - 34) =     25.35572  eV     1   --> A              
     e( 35 - 35) =     29.42805  eV     1   --> A              
     e( 36 - 36) =     29.87652  eV     1   --> A              
     e( 37 - 37) =     30.33843  eV     1   --> A              
     e( 38 - 38) =     31.28511  eV     1   --> A              
     e( 39 - 39) =     31.55641  eV     1   --> A              
     e( 40 - 40) =     32.60134  eV     1   --> A              
     e( 41 - 41) =     32.82450  eV     1   --> A              
     e( 42 - 42) =     32.98434  eV     1   --> A              
     e( 43 - 43) =     33.31756  eV     1   --> A              
     e( 44 - 44) =     33.63628  eV     1   --> A              
     e( 45 - 45) =     34.12039  eV     1   --> A              
     e( 46 - 46) =     34.16153  eV     1   --> A              
     e( 47 - 47) =     37.83718  eV     1   --> A              
     e( 48 - 48) =     38.44568  eV     1   --> A              
     e( 49 - 49) =     38.60065  eV     1   --> A              
     e( 50 - 50) =     38.69244  eV     1   --> A              
     e( 51 - 51) =     40.60119  eV     1   --> A              
     e( 52 - 52) =     40.75129  eV     1   --> A              
     e( 53 - 53) =     41.67218  eV     1   --> A              
     e( 54 - 54) =     41.89516  eV     1   --> A              
     e( 55 - 55) =     42.27655  eV     1   --> A              
     e( 56 - 56) =     42.67067  eV     1   --> A              
     e( 57 - 57) =     42.89715  eV     1   --> A              
     e( 58 - 58) =     43.13424  eV     1   --> A              
     e( 59 - 59) =     43.56398  eV     1   --> A              
     e( 60 - 60) =     44.10669  eV     1   --> A              

 **************************************************************************

 **************************************************************************

                    xk=(   0.04167,   0.12500,   0.12407  )

     Band symmetry, C_1 (1)     point group:

     e(  1 -  1) =    -16.65485  eV     1   --> A              
     e(  2 -  2) =    -15.96647  eV     1   --> A              
     e(  3 -  3) =    -15.94355  eV     1   --> A              
     e(  4 -  4) =      3.03412  eV     1   --> A              
     e(  5 -  5) =      3.45689  eV     1   --> A              
     e(  6 -  6) =      3.56720  eV     1   --> A              
     e(  7 -  7) =      5.21094  eV     1   --> A              
     e(  8 -  8) =      5.50303  eV     1   --> A              
     e(  9 -  9) =      5.63534  eV     1   --> A              
     e( 10 - 10) =      5.95035  eV     1   --> A              
     e( 11 - 11) =      6.50018  eV     1   --> A              
     e( 12 - 12) =      6.66704  eV     1   --> A              
     e( 13 - 13) =     11.26710  eV     1   --> A              
     e( 14 - 14) =     11.45946  eV     1   --> A              
     e( 15 - 15) =     11.54611  eV     1   --> A              
     e( 16 - 16) =     11.86064  eV     1   --> A              
     e( 17 - 17) =     12.17572  eV     1   --> A              
     e( 18 - 18) =     12.37926  eV     1   --> A              
     e( 19 - 19) =     14.46383  eV     1   --> A              
     e( 20 - 20) =     14.73995  eV     1   --> A              
     e( 21 - 21) =     15.99890  eV     1   --> A              
     e( 22 - 22) =     16.30043  eV     1   --> A              
     e( 23 - 23) =     16.52033  eV     1   --> A              
     e( 24 - 24) =     18.43028  eV     1   --> A              
     e( 25 - 25) =     18.46556  eV     1   --> A              
     e( 26 - 26) =     19.10508  eV     1   --> A              
     e( 27 - 27) =     19.34205  eV     1   --> A              
     e( 28 - 28) =     19.45492  eV     1   --> A              
     e( 29 - 29) =     19.50357  eV     1   --> A              
     e( 30 - 30) =     19.61437  eV     1   --> A              
     e( 31 - 31) =     19.69395  eV     1   --> A              
     e( 32 - 32) =     24.86603  eV     1   --> A              
     e( 33 - 33) =     25.11786  eV     1   --> A              
     e( 34 - 34) =     25.20802  eV     1   --> A              
     e( 35 - 35) =     28.62728  eV     1   --> A              
     e( 36 - 36) =     29.36305  eV     1   --> A              
     e( 37 - 37) =     29.83721  eV     1   --> A              
     e( 38 - 38) =     30.98792  eV     1   --> A              
     e( 39 - 39) =     31.19488  eV     1   --> A              
     e( 40 - 40) =     32.55656  eV     1   --> A              
     e( 41 - 41) =     32.87660  eV     1   --> A              
     e( 42 - 42) =     33.00421  eV     1   --> A              
     e( 43 - 43) =     33.12897  eV     1   --> A              
     e( 44 - 44) =     34.03906  eV     1   --> A              
     e( 45 - 45) =     34.14760  eV     1   --> A              
     e( 46 - 46) =     34.55322  eV     1   --> A              
     e( 47 - 47) =     37.79350  eV     1   --> A              
     e( 48 - 48) =     38.41984  eV     1   --> A              
     e( 49 - 49) =     38.55949  eV     1   --> A              
     e( 50 - 50) =     39.07508  eV     1   --> A              
     e( 51 - 51) =     40.64671  eV     1   --> A              
     e( 52 - 52) =     41.04277  eV     1   --> A              
     e( 53 - 53) =     41.61781  eV     1   --> A              
     e( 54 - 54) =     42.10477  eV     1   --> A              
     e( 55 - 55) =     42.40287  eV     1   --> A              
     e( 56 - 56) =     42.75786  eV     1   --> A              
     e( 57 - 57) =     43.43307  eV     1   --> A              
     e( 58 - 58) =     43.66815  eV     1   --> A              
     e( 59 - 59) =     43.85597  eV     1   --> A              
     e( 60 - 60) =     44.63056  eV     1   --> A              

 **************************************************************************

 **************************************************************************

                    xk=(   0.04167,   0.12500,   0.20678  )

     Band symmetry, C_1 (1)     point group:

     e(  1 -  1) =    -16.57239  eV     1   --> A              
     e(  2 -  2) =    -15.96438  eV     1   --> A              
     e(  3 -  3) =    -15.95364  eV     1   --> A              
     e(  4 -  4) =      2.87730  eV     1   --> A              
     e(  5 -  5) =      3.47858  eV     1   --> A              
     e(  6 -  6) =      3.64050  eV     1   --> A              
     e(  7 -  7) =      4.81294  eV     1   --> A              
     e(  8 -  8) =      5.28104  eV     1   --> A              
     e(  9 -  9) =      5.47309  eV     1   --> A              
     e( 10 - 10) =      5.93986  eV     1   --> A              
     e( 11 - 11) =      6.35191  eV     1   --> A              
     e( 12 - 12) =      6.55138  eV     1   --> A              
     e( 13 - 13) =     11.59219  eV     1   --> A              
     e( 14 - 14) =     11.79630  eV     1   --> A              
     e( 15 - 15) =     12.09115  eV     1   --> A              
     e( 16 - 16) =     12.47558  eV     1   --> A              
     e( 17 - 17) =     12.87064  eV     1   --> A              
     e( 18 - 18) =     13.07775  eV     1   --> A              
     e( 19 - 19) =     14.77953  eV     1   --> A              
     e( 20 - 20) =     15.35368  eV     1   --> A              
     e( 21 - 21) =     15.77398  eV     1   --> A              
     e( 22 - 22) =     16.60119  eV     1   --> A              
     e( 23 - 23) =     16.85662  eV     1   --> A              
     e( 24 - 24) =     18.41883  eV     1   --> A              
     e( 25 - 25) =     18.53465  eV     1   --> A              
     e( 26 - 26) =     18.97906  eV     1   --> A              
     e( 27 - 27) =     19.18795  eV     1   --> A              
     e( 28 - 28) =     19.48055  eV     1   --> A              
     e( 29 - 29) =     19.59522  eV     1   --> A              
     e( 30 - 30) =     19.64905  eV     1   --> A              
     e( 31 - 31) =     19.77559  eV     1   --> A              
     e( 32 - 32) =     24.13336  eV     1   --> A              
     e( 33 - 33) =     24.86276  eV     1   --> A              
     e( 34 - 34) =     25.00854  eV     1   --> A              
     e( 35 - 35) =     27.82452  eV     1   --> A              
     e( 36 - 36) =     28.41603  eV     1   --> A              
     e( 37 - 37) =     28.98702  eV     1   --> A              
     e( 38 - 38) =     30.89849  eV     1   --> A              
     e( 39 - 39) =     30.97064  eV     1   --> A              
     e( 40 - 40) =     31.94196  eV     1   --> A              
     e( 41 - 41) =     32.36008  eV     1   --> A              
     e( 42 - 42) =     32.93181  eV     1   --> A              
     e( 43 - 43) =     33.40721  eV     1   --> A              
     e( 44 - 44) =     34.08586  eV     1   --> A              
     e( 45 - 45) =     34.58968  eV     1   --> A              
     e( 46 - 46) =     34.87127  eV     1   --> A              
     e( 47 - 47) =     37.60805  eV     1   --> A              
     e( 48 - 48) =     38.59889  eV     1   --> A              
     e( 49 - 49) =     39.06982  eV     1   --> A              
     e( 50 - 50) =     39.63998  eV     1   --> A              
     e( 51 - 51) =     40.83591  eV     1   --> A              
     e( 52 - 52) =     41.23584  eV     1   --> A              
     e( 53 - 53) =     41.65772  eV     1   --> A              
     e( 54 - 54) =     42.25008  eV     1   --> A              
     e( 55 - 55) =     42.85267  eV     1   --> A              
     e( 56 - 56) =     43.24911  eV     1   --> A              
     e( 57 - 57) =     43.84365  eV     1   --> A              
     e( 58 - 58) =     44.07852  eV     1   --> A              
     e( 59 - 59) =     44.67778  eV     1   --> A              
     e( 60 - 60) =     44.91556  eV     1   --> A              

 **************************************************************************

 **************************************************************************

                    xk=(   0.04167,   0.12500,   0.28949  )

     Band symmetry, C_1 (1)     point group:

     e(  1 -  1) =    -16.46660  eV     1   --> A              
     e(  2 -  2) =    -15.98053  eV     1   --> A              
     e(  3 -  3) =    -15.96092  eV     1   --> A              
     e(  4 -  4) =      2.68132  eV     1   --> A              
     e(  5 -  5) =      3.41496  eV     1   --> A              
     e(  6 -  6) =      3.58711  eV     1   --> A              
     e(  7 -  7) =      4.44988  eV     1   --> A              
     e(  8 -  8) =      4.96197  eV     1   --> A              
     e(  9 -  9) =      5.35867  eV     1   --> A              
     e( 10 - 10) =      5.85576  eV     1   --> A              
     e( 11 - 11) =      6.20753  eV     1   --> A              
     e( 12 - 12) =      6.30383  eV     1   --> A              
     e( 13 - 13) =     11.93389  eV     1   --> A              
     e( 14 - 14) =     12.27423  eV     1   --> A              
     e( 15 - 15) =     12.75775  eV     1   --> A              
     e( 16 - 16) =     13.19396  eV     1   --> A              
     e( 17 - 17) =     13.45054  eV     1   --> A              
     e( 18 - 18) =     13.79758  eV     1   --> A              
     e( 19 - 19) =     14.89299  eV     1   --> A              
     e( 20 - 20) =     15.35368  eV     1   --> A              
     e( 21 - 21) =     15.96519  eV     1   --> A              
     e( 22 - 22) =     16.92743  eV     1   --> A              
     e( 23 - 23) =     17.12808  eV     1   --> A              
     e( 24 - 24) =     18.20405  eV     1   --> A              
     e( 25 - 25) =     18.59647  eV     1   --> A              
     e( 26 - 26) =     18.66024  eV     1   --> A              
     e( 27 - 27) =     19.17316  eV     1   --> A              
     e( 28 - 28) =     19.39392  eV     1   --> A              
     e( 29 - 29) =     19.49182  eV     1   --> A              
     e( 30 - 30) =     19.56927  eV     1   --> A              
     e( 31 - 31) =     20.49859  eV     1   --> A              
     e( 32 - 32) =     22.97097  eV     1   --> A              
     e( 33 - 33) =     24.68642  eV     1   --> A              
     e( 34 - 34) =     24.76973  eV     1   --> A              
     e( 35 - 35) =     26.83669  eV     1   --> A              
     e( 36 - 36) =     27.39413  eV     1   --> A              
     e( 37 - 37) =     28.03655  eV     1   --> A              
     e( 38 - 38) =     30.70202  eV     1   --> A              
     e( 39 - 39) =     30.85725  eV     1   --> A              
     e( 40 - 40) =     31.30915  eV     1   --> A              
     e( 41 - 41) =     31.65923  eV     1   --> A              
     e( 42 - 42) =     32.70467  eV     1   --> A              
     e( 43 - 43) =     33.49687  eV     1   --> A              
     e( 44 - 44) =     34.08062  eV     1   --> A              
     e( 45 - 45) =     35.01371  eV     1   --> A              
     e( 46 - 46) =     35.23042  eV     1   --> A              
     e( 47 - 47) =     37.66726  eV     1   --> A              
     e( 48 - 48) =     38.68075  eV     1   --> A              
     e( 49 - 49) =     39.85324  eV     1   --> A              
     e( 50 - 50) =     40.07819  eV     1   --> A              
     e( 51 - 51) =     41.11124  eV     1   --> A              
     e( 52 - 52) =     41.42131  eV     1   --> A              
     e( 53 - 53) =     41.94812  eV     1   --> A              
     e( 54 - 54) =     42.28935  eV     1   --> A              
     e( 55 - 55) =     43.15817  eV     1   --> A              
     e( 56 - 56) =     43.42455  eV     1   --> A              
     e( 57 - 57) =     43.83070  eV     1   --> A              
     e( 58 - 58) =     43.95790  eV     1   --> A              
     e( 59 - 59) =     44.97523  eV     1   --> A              
     e( 60 - 60) =     45.25549  eV     1   --> A              

 **************************************************************************

 **************************************************************************

                    xk=(   0.04167,   0.12500,   0.37220  )

     Band symmetry, C_1 (1)     point group:

     e(  1 -  1) =    -16.35624  eV     1   --> A              
     e(  2 -  2) =    -16.02353  eV     1   --> A              
     e(  3 -  3) =    -15.96032  eV     1   --> A              
     e(  4 -  4) =      2.52132  eV     1   --> A              
     e(  5 -  5) =      3.28949  eV     1   --> A              
     e(  6 -  6) =      3.46825  eV     1   --> A              
     e(  7 -  7) =      4.02403  eV     1   --> A              
     e(  8 -  8) =      4.70642  eV     1   --> A              
     e(  9 -  9) =      5.19626  eV     1   --> A              
     e( 10 - 10) =      5.70647  eV     1   --> A              
     e( 11 - 11) =      5.99743  eV     1   --> A              
     e( 12 - 12) =      6.11693  eV     1   --> A              
     e( 13 - 13) =     12.00452  eV     1   --> A              
     e( 14 - 14) =     12.92649  eV     1   --> A              
     e( 15 - 15) =     13.42128  eV     1   --> A              
     e( 16 - 16) =     13.71229  eV     1   --> A              
     e( 17 - 17) =     13.90872  eV     1   --> A              
     e( 18 - 18) =     14.40987  eV     1   --> A              
     e( 19 - 19) =     14.78770  eV     1   --> A              
     e( 20 - 20) =     15.03492  eV     1   --> A              
     e( 21 - 21) =     16.19544  eV     1   --> A              
     e( 22 - 22) =     16.95957  eV     1   --> A              
     e( 23 - 23) =     17.19953  eV     1   --> A              
     e( 24 - 24) =     18.02951  eV     1   --> A              
     e( 25 - 25) =     18.52191  eV     1   --> A              
     e( 26 - 26) =     18.61733  eV     1   --> A              
     e( 27 - 27) =     19.11684  eV     1   --> A              
     e( 28 - 28) =     19.21309  eV     1   --> A              
     e( 29 - 29) =     19.33141  eV     1   --> A              
     e( 30 - 30) =     19.48403  eV     1   --> A              
     e( 31 - 31) =     21.45625  eV     1   --> A              
     e( 32 - 32) =     21.72388  eV     1   --> A              
     e( 33 - 33) =     24.56962  eV     1   --> A              
     e( 34 - 34) =     24.71667  eV     1   --> A              
     e( 35 - 35) =     25.84844  eV     1   --> A              
     e( 36 - 36) =     26.35149  eV     1   --> A              
     e( 37 - 37) =     27.06127  eV     1   --> A              
     e( 38 - 38) =     30.24273  eV     1   --> A              
     e( 39 - 39) =     30.50626  eV     1   --> A              
     e( 40 - 40) =     31.05316  eV     1   --> A              
     e( 41 - 41) =     31.21551  eV     1   --> A              
     e( 42 - 42) =     32.47591  eV     1   --> A              
     e( 43 - 43) =     33.42035  eV     1   --> A              
     e( 44 - 44) =     34.03155  eV     1   --> A              
     e( 45 - 45) =     35.28390  eV     1   --> A              
     e( 46 - 46) =     35.42895  eV     1   --> A              
     e( 47 - 47) =     37.75780  eV     1   --> A              
     e( 48 - 48) =     38.85847  eV     1   --> A              
     e( 49 - 49) =     40.31814  eV     1   --> A              
     e( 50 - 50) =     40.56133  eV     1   --> A              
     e( 51 - 51) =     41.36370  eV     1   --> A              
     e( 52 - 52) =     41.62250  eV     1   --> A              
     e( 53 - 53) =     41.78703  eV     1   --> A              
     e( 54 - 54) =     42.33387  eV     1   --> A              
     e( 55 - 55) =     43.07027  eV     1   --> A              
     e( 56 - 56) =     43.46449  eV     1   --> A              
     e( 57 - 57) =     43.85569  eV     1   --> A              
     e( 58 - 58) =     44.01250  eV     1   --> A              
     e( 59 - 59) =     45.45830  eV     1   --> A              
     e( 60 - 60) =     45.60990  eV     1   --> A              

 **************************************************************************

 **************************************************************************

                    xk=(   0.04167,   0.12500,   0.45491  )

     Band symmetry, C_1 (1)     point group:

     e(  1 -  1) =    -16.26975  eV     1   --> A              
     e(  2 -  2) =    -16.07158  eV     1   --> A              
     e(  3 -  3) =    -15.95972  eV     1   --> A              
     e(  4 -  4) =      2.44949  eV     1   --> A              
     e(  5 -  5) =      3.25045  eV     1   --> A              
     e(  6 -  6) =      3.40606  eV     1   --> A              
     e(  7 -  7) =      3.79718  eV     1   --> A              
     e(  8 -  8) =      4.45645  eV     1   --> A              
     e(  9 -  9) =      5.10899  eV     1   --> A              
     e( 10 - 10) =      5.64002  eV     1   --> A              
     e( 11 - 11) =      5.81770  eV     1   --> A              
     e( 12 - 12) =      6.05196  eV     1   --> A              
     e( 13 - 13) =     12.13617  eV     1   --> A              
     e( 14 - 14) =     13.43686  eV     1   --> A              
     e( 15 - 15) =     13.79804  eV     1   --> A              
     e( 16 - 16) =     13.86944  eV     1   --> A              
     e( 17 - 17) =     14.34040  eV     1   --> A              
     e( 18 - 18) =     14.66199  eV     1   --> A              
     e( 19 - 19) =     14.79679  eV     1   --> A              
     e( 20 - 20) =     14.87890  eV     1   --> A              
     e( 21 - 21) =     16.14131  eV     1   --> A              
     e( 22 - 22) =     16.70457  eV     1   --> A              
     e( 23 - 23) =     17.06887  eV     1   --> A              
     e( 24 - 24) =     18.08842  eV     1   --> A              
     e( 25 - 25) =     18.61955  eV     1   --> A              
     e( 26 - 26) =     18.78680  eV     1   --> A              
     e( 27 - 27) =     18.98919  eV     1   --> A              
     e( 28 - 28) =     19.07328  eV     1   --> A              
     e( 29 - 29) =     19.18416  eV     1   --> A              
     e( 30 - 30) =     19.47393  eV     1   --> A              
     e( 31 - 31) =     20.49611  eV     1   --> A              
     e( 32 - 32) =     22.62456  eV     1   --> A              
     e( 33 - 33) =     24.36685  eV     1   --> A              
     e( 34 - 34) =     24.93320  eV     1   --> A              
     e( 35 - 35) =     25.23943  eV     1   --> A              
     e( 36 - 36) =     25.55614  eV     1   --> A              
     e( 37 - 37) =     26.18612  eV     1   --> A              
     e( 38 - 38) =     29.84474  eV     1   --> A              
     e( 39 - 39) =     30.26795  eV     1   --> A              
     e( 40 - 40) =     30.99066  eV     1   --> A              
     e( 41 - 41) =     31.06106  eV     1   --> A              
     e( 42 - 42) =     32.39337  eV     1   --> A              
     e( 43 - 43) =     33.45192  eV     1   --> A              
     e( 44 - 44) =     33.95222  eV     1   --> A              
     e( 45 - 45) =     35.33310  eV     1   --> A              
     e( 46 - 46) =     35.57938  eV     1   --> A              
     e( 47 - 47) =     37.78655  eV     1   --> A              
     e( 48 - 48) =     39.07942  eV     1   --> A              
     e( 49 - 49) =     40.34087  eV     1   --> A              
     e( 50 - 50) =     40.62451  eV     1   --> A              
     e( 51 - 51) =     41.48737  eV     1   --> A              
     e( 52 - 52) =     41.81104  eV     1   --> A              
     e( 53 - 53) =     42.13223  eV     1   --> A              
     e( 54 - 54) =     42.54472  eV     1   --> A              
     e( 55 - 55) =     42.80745  eV     1   --> A              
     e( 56 - 56) =     43.59274  eV     1   --> A              
     e( 57 - 57) =     43.83611  eV     1   --> A              
     e( 58 - 58) =     44.04949  eV     1   --> A              
     e( 59 - 59) =     45.17996  eV     1   --> A              
     e( 60 - 60) =     45.76017  eV     1   --> A              

 **************************************************************************

 **************************************************************************

                    xk=(   0.04167,   0.20833,   0.04136  )

     Band symmetry, C_1 (1)     point group:

     e(  1 -  1) =    -16.60875  eV     1   --> A              
     e(  2 -  2) =    -15.97864  eV     1   --> A              
     e(  3 -  3) =    -15.93448  eV     1   --> A              
     e(  4 -  4) =      3.05711  eV     1   --> A              
     e(  5 -  5) =      3.39112  eV     1   --> A              
     e(  6 -  6) =      3.44624  eV     1   --> A              
     e(  7 -  7) =      5.20191  eV     1   --> A              
     e(  8 -  8) =      5.31565  eV     1   --> A              
     e(  9 -  9) =      5.60767  eV     1   --> A              
     e( 10 - 10) =      5.71484  eV     1   --> A              
     e( 11 - 11) =      6.40434  eV     1   --> A              
     e( 12 - 12) =      6.49202  eV     1   --> A              
     e( 13 - 13) =     11.24965  eV     1   --> A              
     e( 14 - 14) =     11.77294  eV     1   --> A              
     e( 15 - 15) =     11.92404  eV     1   --> A              
     e( 16 - 16) =     12.34542  eV     1   --> A              
     e( 17 - 17) =     12.51639  eV     1   --> A              
     e( 18 - 18) =     12.60876  eV     1   --> A              
     e( 19 - 19) =     14.51641  eV     1   --> A              
     e( 20 - 20) =     15.19437  eV     1   --> A              
     e( 21 - 21) =     15.50963  eV     1   --> A              
     e( 22 - 22) =     16.72300  eV     1   --> A              
     e( 23 - 23) =     16.75012  eV     1   --> A              
     e( 24 - 24) =     18.44399  eV     1   --> A              
     e( 25 - 25) =     18.47002  eV     1   --> A              
     e( 26 - 26) =     19.21386  eV     1   --> A              
     e( 27 - 27) =     19.33487  eV     1   --> A              
     e( 28 - 28) =     19.43779  eV     1   --> A              
     e( 29 - 29) =     19.55395  eV     1   --> A              
     e( 30 - 30) =     19.60750  eV     1   --> A              
     e( 31 - 31) =     19.66388  eV     1   --> A              
     e( 32 - 32) =     24.38985  eV     1   --> A              
     e( 33 - 33) =     24.99532  eV     1   --> A              
     e( 34 - 34) =     25.10700  eV     1   --> A              
     e( 35 - 35) =     28.33292  eV     1   --> A              
     e( 36 - 36) =     28.67657  eV     1   --> A              
     e( 37 - 37) =     29.36892  eV     1   --> A              
     e( 38 - 38) =     31.30921  eV     1   --> A              
     e( 39 - 39) =     31.46308  eV     1   --> A              
     e( 40 - 40) =     32.11677  eV     1   --> A              
     e( 41 - 41) =     32.50159  eV     1   --> A              
     e( 42 - 42) =     33.03892  eV     1   --> A              
     e( 43 - 43) =     33.23446  eV     1   --> A              
     e( 44 - 44) =     33.94133  eV     1   --> A              
     e( 45 - 45) =     34.15693  eV     1   --> A              
     e( 46 - 46) =     34.23172  eV     1   --> A              
     e( 47 - 47) =     37.48815  eV     1   --> A              
     e( 48 - 48) =     38.96493  eV     1   --> A              
     e( 49 - 49) =     39.16620  eV     1   --> A              
     e( 50 - 50) =     39.35767  eV     1   --> A              
     e( 51 - 51) =     40.73085  eV     1   --> A              
     e( 52 - 52) =     41.03128  eV     1   --> A              
     e( 53 - 53) =     41.72438  eV     1   --> A              
     e( 54 - 54) =     42.24145  eV     1   --> A              
     e( 55 - 55) =     42.68429  eV     1   --> A              
     e( 56 - 56) =     43.04469  eV     1   --> A              
     e( 57 - 57) =     43.18098  eV     1   --> A              
     e( 58 - 58) =     43.92953  eV     1   --> A              
     e( 59 - 59) =     44.26408  eV     1   --> A              
     e( 60 - 60) =     44.69223  eV     1   --> A              

 **************************************************************************

 **************************************************************************

                    xk=(   0.04167,   0.20833,   0.12407  )

     Band symmetry, C_1 (1)     point group:

     e(  1 -  1) =    -16.57036  eV     1   --> A              
     e(  2 -  2) =    -15.97833  eV     1   --> A              
     e(  3 -  3) =    -15.94006  eV     1   --> A              
     e(  4 -  4) =      2.85686  eV     1   --> A              
     e(  5 -  5) =      3.45711  eV     1   --> A              
     e(  6 -  6) =      3.57055  eV     1   --> A              
     e(  7 -  7) =      4.80016  eV     1   --> A              
     e(  8 -  8) =      5.25041  eV     1   --> A              
     e(  9 -  9) =      5.45836  eV     1   --> A              
     e( 10 - 10) =      5.92303  eV     1   --> A              
     e( 11 - 11) =      6.39195  eV     1   --> A              
     e( 12 - 12) =      6.48889  eV     1   --> A              
     e( 13 - 13) =     11.59061  eV     1   --> A              
     e( 14 - 14) =     11.75336  eV     1   --> A              
     e( 15 - 15) =     12.11314  eV     1   --> A              
     e( 16 - 16) =     12.52100  eV     1   --> A              
     e( 17 - 17) =     12.84393  eV     1   --> A              
     e( 18 - 18) =     13.07884  eV     1   --> A              
     e( 19 - 19) =     14.66060  eV     1   --> A              
     e( 20 - 20) =     15.29497  eV     1   --> A              
     e( 21 - 21) =     15.77298  eV     1   --> A              
     e( 22 - 22) =     16.62340  eV     1   --> A              
     e( 23 - 23) =     16.85372  eV     1   --> A              
     e( 24 - 24) =     18.44736  eV     1   --> A              
     e( 25 - 25) =     18.52261  eV     1   --> A              
     e( 26 - 26) =     18.96667  eV     1   --> A              
     e( 27 - 27) =     19.19053  eV     1   --> A              
     e( 28 - 28) =     19.45996  eV     1   --> A              
     e( 29 - 29) =     19.56778  eV     1   --> A              
     e( 30 - 30) =     19.66536  eV     1   --> A              
     e( 31 - 31) =     19.79061  eV     1   --> A              
     e( 32 - 32) =     24.26645  eV     1   --> A              
     e( 33 - 33) =     24.73339  eV     1   --> A              
     e( 34 - 34) =     24.98690  eV     1   --> A              
     e( 35 - 35) =     27.73301  eV     1   --> A              
     e( 36 - 36) =     28.45450  eV     1   --> A              
     e( 37 - 37) =     29.06243  eV     1   --> A              
     e( 38 - 38) =     30.85257  eV     1   --> A              
     e( 39 - 39) =     30.96120  eV     1   --> A              
     e( 40 - 40) =     31.91819  eV     1   --> A              
     e( 41 - 41) =     32.42013  eV     1   --> A              
     e( 42 - 42) =     32.95143  eV     1   --> A              
     e( 43 - 43) =     33.40182  eV     1   --> A              
     e( 44 - 44) =     34.07726  eV     1   --> A              
     e( 45 - 45) =     34.57138  eV     1   --> A              
     e( 46 - 46) =     34.80064  eV     1   --> A              
     e( 47 - 47) =     37.52130  eV     1   --> A              
     e( 48 - 48) =     38.43103  eV     1   --> A              
     e( 49 - 49) =     39.17224  eV     1   --> A              
     e( 50 - 50) =     39.57058  eV     1   --> A              
     e( 51 - 51) =     40.77639  eV     1   --> A              
     e( 52 - 52) =     41.24872  eV     1   --> A              
     e( 53 - 53) =     41.65303  eV     1   --> A              
     e( 54 - 54) =     42.23806  eV     1   --> A              
     e( 55 - 55) =     42.81611  eV     1   --> A              
     e( 56 - 56) =     43.25685  eV     1   --> A              
     e( 57 - 57) =     43.52726  eV     1   --> A              
     e( 58 - 58) =     44.33525  eV     1   --> A              
     e( 59 - 59) =     44.74649  eV     1   --> A              
     e( 60 - 60) =     45.07062  eV     1   --> A              

 **************************************************************************

 **************************************************************************

                    xk=(   0.04167,   0.20833,   0.20678  )

     Band symmetry, C_1 (1)     point group:

     e(  1 -  1) =    -16.50059  eV     1   --> A              
     e(  2 -  2) =    -15.98026  eV     1   --> A              
     e(  3 -  3) =    -15.95018  eV     1   --> A              
     e(  4 -  4) =      2.63860  eV     1   --> A              
     e(  5 -  5) =      3.47938  eV     1   --> A              
     e(  6 -  6) =      3.65455  eV     1   --> A              
     e(  7 -  7) =      4.43193  eV     1   --> A              
     e(  8 -  8) =      5.15702  eV     1   --> A              
     e(  9 -  9) =      5.21320  eV     1   --> A              
     e( 10 - 10) =      5.94660  eV     1   --> A              
     e( 11 - 11) =      6.19761  eV     1   --> A              
     e( 12 - 12) =      6.53879  eV     1   --> A              
     e( 13 - 13) =     11.74699  eV     1   --> A              
     e( 14 - 14) =     12.31693  eV     1   --> A              
     e( 15 - 15) =     12.40152  eV     1   --> A              
     e( 16 - 16) =     12.88988  eV     1   --> A              
     e( 17 - 17) =     13.18800  eV     1   --> A              
     e( 18 - 18) =     13.66968  eV     1   --> A              
     e( 19 - 19) =     15.06595  eV     1   --> A              
     e( 20 - 20) =     15.57512  eV     1   --> A              
     e( 21 - 21) =     15.99500  eV     1   --> A              
     e( 22 - 22) =     16.52673  eV     1   --> A              
     e( 23 - 23) =     16.91504  eV     1   --> A              
     e( 24 - 24) =     18.33851  eV     1   --> A              
     e( 25 - 25) =     18.54828  eV     1   --> A              
     e( 26 - 26) =     18.70127  eV     1   --> A              
     e( 27 - 27) =     18.96759  eV     1   --> A              
     e( 28 - 28) =     19.45428  eV     1   --> A              
     e( 29 - 29) =     19.50717  eV     1   --> A              
     e( 30 - 30) =     19.64989  eV     1   --> A              
     e( 31 - 31) =     20.19516  eV     1   --> A              
     e( 32 - 32) =     23.79317  eV     1   --> A              
     e( 33 - 33) =     24.41819  eV     1   --> A              
     e( 34 - 34) =     24.76271  eV     1   --> A              
     e( 35 - 35) =     26.98875  eV     1   --> A              
     e( 36 - 36) =     27.85242  eV     1   --> A              
     e( 37 - 37) =     28.36318  eV     1   --> A              
     e( 38 - 38) =     30.37862  eV     1   --> A              
     e( 39 - 39) =     30.62156  eV     1   --> A              
     e( 40 - 40) =     31.32660  eV     1   --> A              
     e( 41 - 41) =     32.36925  eV     1   --> A              
     e( 42 - 42) =     32.77430  eV     1   --> A              
     e( 43 - 43) =     33.59272  eV     1   --> A              
     e( 44 - 44) =     34.03508  eV     1   --> A              
     e( 45 - 45) =     35.13060  eV     1   --> A              
     e( 46 - 46) =     35.40932  eV     1   --> A              
     e( 47 - 47) =     37.25089  eV     1   --> A              
     e( 48 - 48) =     38.67335  eV     1   --> A              
     e( 49 - 49) =     38.96874  eV     1   --> A              
     e( 50 - 50) =     40.17191  eV     1   --> A              
     e( 51 - 51) =     40.79871  eV     1   --> A              
     e( 52 - 52) =     41.28220  eV     1   --> A              
     e( 53 - 53) =     41.40389  eV     1   --> A              
     e( 54 - 54) =     42.56517  eV     1   --> A              
     e( 55 - 55) =     43.13445  eV     1   --> A              
     e( 56 - 56) =     43.69355  eV     1   --> A              
     e( 57 - 57) =     44.05677  eV     1   --> A              
     e( 58 - 58) =     44.25344  eV     1   --> A              
     e( 59 - 59) =     44.72892  eV     1   --> A              
     e( 60 - 60) =     45.08762  eV     1   --> A              

 **************************************************************************

 **************************************************************************

                    xk=(   0.04167,   0.20833,   0.28949  )

     Band symmetry, C_1 (1)     point group:

     e(  1 -  1) =    -16.41184  eV     1   --> A              
     e(  2 -  2) =    -15.98787  eV     1   --> A              
     e(  3 -  3) =    -15.96646  eV     1   --> A              
     e(  4 -  4) =      2.46548  eV     1   --> A              
     e(  5 -  5) =      3.45796  eV     1   --> A              
     e(  6 -  6) =      3.63001  eV     1   --> A              
     e(  7 -  7) =      3.98246  eV     1   --> A              
     e(  8 -  8) =      4.93297  eV     1   --> A              
     e(  9 -  9) =      5.08446  eV     1   --> A              
     e( 10 - 10) =      5.85341  eV     1   --> A              
     e( 11 - 11) =      5.97197  eV     1   --> A              
     e( 12 - 12) =      6.47615  eV     1   --> A              
     e( 13 - 13) =     12.11744  eV     1   --> A              
     e( 14 - 14) =     12.55020  eV     1   --> A              
     e( 15 - 15) =     13.00013  eV     1   --> A              
     e( 16 - 16) =     13.52269  eV     1   --> A              
     e( 17 - 17) =     13.60931  eV     1   --> A              
     e( 18 - 18) =     14.36820  eV     1   --> A              
     e( 19 - 19) =     15.18551  eV     1   --> A              
     e( 20 - 20) =     15.78017  eV     1   --> A              
     e( 21 - 21) =     16.06388  eV     1   --> A              
     e( 22 - 22) =     16.76547  eV     1   --> A              
     e( 23 - 23) =     17.03920  eV     1   --> A              
     e( 24 - 24) =     18.16286  eV     1   --> A              
     e( 25 - 25) =     18.48772  eV     1   --> A              
     e( 26 - 26) =     18.52039  eV     1   --> A              
     e( 27 - 27) =     18.87519  eV     1   --> A              
     e( 28 - 28) =     19.37045  eV     1   --> A              
     e( 29 - 29) =     19.46397  eV     1   --> A              
     e( 30 - 30) =     19.60997  eV     1   --> A              
     e( 31 - 31) =     20.85282  eV     1   --> A              
     e( 32 - 32) =     22.82004  eV     1   --> A              
     e( 33 - 33) =     24.12474  eV     1   --> A              
     e( 34 - 34) =     24.55100  eV     1   --> A              
     e( 35 - 35) =     26.30324  eV     1   --> A              
     e( 36 - 36) =     26.90293  eV     1   --> A              
     e( 37 - 37) =     27.56504  eV     1   --> A              
     e( 38 - 38) =     30.02268  eV     1   --> A              
     e( 39 - 39) =     30.36506  eV     1   --> A              
     e( 40 - 40) =     30.83277  eV     1   --> A              
     e( 41 - 41) =     31.71269  eV     1   --> A              
     e( 42 - 42) =     32.67542  eV     1   --> A              
     e( 43 - 43) =     33.61400  eV     1   --> A              
     e( 44 - 44) =     33.97821  eV     1   --> A              
     e( 45 - 45) =     35.59073  eV     1   --> A              
     e( 46 - 46) =     35.85865  eV     1   --> A              
     e( 47 - 47) =     37.27922  eV     1   --> A              
     e( 48 - 48) =     38.63865  eV     1   --> A              
     e( 49 - 49) =     39.33411  eV     1   --> A              
     e( 50 - 50) =     40.50672  eV     1   --> A              
     e( 51 - 51) =     40.83982  eV     1   --> A              
     e( 52 - 52) =     41.44184  eV     1   --> A              
     e( 53 - 53) =     41.70807  eV     1   --> A              
     e( 54 - 54) =     42.53216  eV     1   --> A              
     e( 55 - 55) =     43.23143  eV     1   --> A              
     e( 56 - 56) =     43.51253  eV     1   --> A              
     e( 57 - 57) =     43.90530  eV     1   --> A              
     e( 58 - 58) =     44.27748  eV     1   --> A              
     e( 59 - 59) =     44.93221  eV     1   --> A              
     e( 60 - 60) =     45.08836  eV     1   --> A              

 **************************************************************************

 **************************************************************************

                    xk=(   0.04167,   0.20833,   0.37220  )

     Band symmetry, C_1 (1)     point group:

     e(  1 -  1) =    -16.32191  eV     1   --> A              
     e(  2 -  2) =    -16.01367  eV     1   --> A              
     e(  3 -  3) =    -15.97734  eV     1   --> A              
     e(  4 -  4) =      2.26996  eV     1   --> A              
     e(  5 -  5) =      3.38143  eV     1   --> A              
     e(  6 -  6) =      3.54470  eV     1   --> A              
     e(  7 -  7) =      3.62845  eV     1   --> A              
     e(  8 -  8) =      4.69482  eV     1   --> A              
     e(  9 -  9) =      5.00486  eV     1   --> A              
     e( 10 - 10) =      5.64486  eV     1   --> A              
     e( 11 - 11) =      5.85635  eV     1   --> A              
     e( 12 - 12) =      6.31154  eV     1   --> A              
     e( 13 - 13) =     12.51982  eV     1   --> A              
     e( 14 - 14) =     12.68578  eV     1   --> A              
     e( 15 - 15) =     13.55850  eV     1   --> A              
     e( 16 - 16) =     13.82524  eV     1   --> A              
     e( 17 - 17) =     14.18082  eV     1   --> A              
     e( 18 - 18) =     14.77418  eV     1   --> A              
     e( 19 - 19) =     15.13355  eV     1   --> A              
     e( 20 - 20) =     15.56507  eV     1   --> A              
     e( 21 - 21) =     16.01185  eV     1   --> A              
     e( 22 - 22) =     16.85598  eV     1   --> A              
     e( 23 - 23) =     17.15641  eV     1   --> A              
     e( 24 - 24) =     17.84758  eV     1   --> A              
     e( 25 - 25) =     18.44865  eV     1   --> A              
     e( 26 - 26) =     18.46669  eV     1   --> A              
     e( 27 - 27) =     19.00335  eV     1   --> A              
     e( 28 - 28) =     19.11078  eV     1   --> A              
     e( 29 - 29) =     19.31281  eV     1   --> A              
     e( 30 - 30) =     19.47297  eV     1   --> A              
     e( 31 - 31) =     21.53995  eV     1   --> A              
     e( 32 - 32) =     21.81581  eV     1   --> A              
     e( 33 - 33) =     23.88176  eV     1   --> A              
     e( 34 - 34) =     24.47278  eV     1   --> A              
     e( 35 - 35) =     25.59440  eV     1   --> A              
     e( 36 - 36) =     25.97489  eV     1   --> A              
     e( 37 - 37) =     26.79392  eV     1   --> A              
     e( 38 - 38) =     29.62656  eV     1   --> A              
     e( 39 - 39) =     30.19868  eV     1   --> A              
     e( 40 - 40) =     30.50684  eV     1   --> A              
     e( 41 - 41) =     30.95120  eV     1   --> A              
     e( 42 - 42) =     32.52710  eV     1   --> A              
     e( 43 - 43) =     33.64997  eV     1   --> A              
     e( 44 - 44) =     33.87476  eV     1   --> A              
     e( 45 - 45) =     35.87335  eV     1   --> A              
     e( 46 - 46) =     36.24404  eV     1   --> A              
     e( 47 - 47) =     37.51836  eV     1   --> A              
     e( 48 - 48) =     38.43986  eV     1   --> A              
     e( 49 - 49) =     39.86961  eV     1   --> A              
     e( 50 - 50) =     40.58782  eV     1   --> A              
     e( 51 - 51) =     40.98701  eV     1   --> A              
     e( 52 - 52) =     41.50963  eV     1   --> A              
     e( 53 - 53) =     41.85071  eV     1   --> A              
     e( 54 - 54) =     42.27269  eV     1   --> A              
     e( 55 - 55) =     43.02024  eV     1   --> A              
     e( 56 - 56) =     43.30495  eV     1   --> A              
     e( 57 - 57) =     43.98427  eV     1   --> A              
     e( 58 - 58) =     44.16993  eV     1   --> A              
     e( 59 - 59) =     44.71260  eV     1   --> A              
     e( 60 - 60) =     45.50071  eV     1   --> A              

 **************************************************************************

 **************************************************************************

                    xk=(   0.04167,   0.20833,   0.45491  )

     Band symmetry, C_1 (1)     point group:

     e(  1 -  1) =    -16.25584  eV     1   --> A              
     e(  2 -  2) =    -16.04468  eV     1   --> A              
     e(  3 -  3) =    -15.97961  eV     1   --> A              
     e(  4 -  4) =      2.22834  eV     1   --> A              
     e(  5 -  5) =      3.32934  eV     1   --> A              
     e(  6 -  6) =      3.37722  eV     1   --> A              
     e(  7 -  7) =      3.56461  eV     1   --> A              
     e(  8 -  8) =      4.58459  eV     1   --> A              
     e(  9 -  9) =      5.05534  eV     1   --> A              
     e( 10 - 10) =      5.48877  eV     1   --> A              
     e( 11 - 11) =      5.80308  eV     1   --> A              
     e( 12 - 12) =      6.24431  eV     1   --> A              
     e( 13 - 13) =     12.50633  eV     1   --> A              
     e( 14 - 14) =     13.31693  eV     1   --> A              
     e( 15 - 15) =     13.81738  eV     1   --> A              
     e( 16 - 16) =     14.07258  eV     1   --> A              
     e( 17 - 17) =     14.63853  eV     1   --> A              
     e( 18 - 18) =     15.26486  eV     1   --> A              
     e( 19 - 19) =     15.36901  eV     1   --> A              
     e( 20 - 20) =     15.47943  eV     1   --> A              
     e( 21 - 21) =     15.87777  eV     1   --> A              
     e( 22 - 22) =     16.67507  eV     1   --> A              
     e( 23 - 23) =     17.15349  eV     1   --> A              
     e( 24 - 24) =     18.06808  eV     1   --> A              
     e( 25 - 25) =     18.42258  eV     1   --> A              
     e( 26 - 26) =     18.51965  eV     1   --> A              
     e( 27 - 27) =     18.91415  eV     1   --> A              
     e( 28 - 28) =     19.12697  eV     1   --> A              
     e( 29 - 29) =     19.43607  eV     1   --> A              
     e( 30 - 30) =     19.53505  eV     1   --> A              
     e( 31 - 31) =     20.57658  eV     1   --> A              
     e( 32 - 32) =     22.71398  eV     1   --> A              
     e( 33 - 33) =     23.54346  eV     1   --> A              
     e( 34 - 34) =     24.67221  eV     1   --> A              
     e( 35 - 35) =     25.22067  eV     1   --> A              
     e( 36 - 36) =     25.32247  eV     1   --> A              
     e( 37 - 37) =     26.10010  eV     1   --> A              
     e( 38 - 38) =     29.38031  eV     1   --> A              
     e( 39 - 39) =     30.10080  eV     1   --> A              
     e( 40 - 40) =     30.36713  eV     1   --> A              
     e( 41 - 41) =     30.54341  eV     1   --> A              
     e( 42 - 42) =     32.45301  eV     1   --> A              
     e( 43 - 43) =     33.60125  eV     1   --> A              
     e( 44 - 44) =     33.84306  eV     1   --> A              
     e( 45 - 45) =     35.97184  eV     1   --> A              
     e( 46 - 46) =     36.48103  eV     1   --> A              
     e( 47 - 47) =     37.80216  eV     1   --> A              
     e( 48 - 48) =     38.28047  eV     1   --> A              
     e( 49 - 49) =     40.27565  eV     1   --> A              
     e( 50 - 50) =     40.64125  eV     1   --> A              
     e( 51 - 51) =     40.97035  eV     1   --> A              
     e( 52 - 52) =     41.45602  eV     1   --> A              
     e( 53 - 53) =     42.11528  eV     1   --> A              
     e( 54 - 54) =     42.56084  eV     1   --> A              
     e( 55 - 55) =     42.67889  eV     1   --> A              
     e( 56 - 56) =     43.19261  eV     1   --> A              
     e( 57 - 57) =     43.66528  eV     1   --> A              
     e( 58 - 58) =     44.08385  eV     1   --> A              
     e( 59 - 59) =     44.39864  eV     1   --> A              
     e( 60 - 60) =     45.81777  eV     1   --> A              

 **************************************************************************

 **************************************************************************

                    xk=(   0.04167,   0.29167,   0.04136  )

     Band symmetry, C_1 (1)     point group:

     e(  1 -  1) =    -16.49078  eV     1   --> A              
     e(  2 -  2) =    -16.00409  eV     1   --> A              
     e(  3 -  3) =    -15.93124  eV     1   --> A              
     e(  4 -  4) =      2.84638  eV     1   --> A              
     e(  5 -  5) =      3.31290  eV     1   --> A              
     e(  6 -  6) =      3.38983  eV     1   --> A              
     e(  7 -  7) =      4.81897  eV     1   --> A              
     e(  8 -  8) =      4.97404  eV     1   --> A              
     e(  9 -  9) =      5.41113  eV     1   --> A              
     e( 10 - 10) =      5.53378  eV     1   --> A              
[...]
     e( 11 - 11) =      5.90364  eV     1   --> A''            
     e( 12 - 12) =      7.19192  eV     1   --> A''            
     e( 13 - 13) =     12.72656  eV     1   --> A'             
     e( 14 - 14) =     14.21542  eV     1   --> A'             
     e( 15 - 15) =     14.27843  eV     1   --> A''            
     e( 16 - 16) =     14.34333  eV     1   --> A'             
     e( 17 - 17) =     15.55413  eV     1   --> A''            
     e( 18 - 18) =     15.58295  eV     1   --> A'             
     e( 19 - 19) =     15.88007  eV     1   --> A'             
     e( 20 - 20) =     16.08118  eV     1   --> A'             
     e( 21 - 21) =     16.82051  eV     1   --> A''            
     e( 22 - 22) =     17.03904  eV     1   --> A'             
     e( 23 - 23) =     17.57314  eV     1   --> A'             
     e( 24 - 24) =     17.90122  eV     1   --> A''            
     e( 25 - 25) =     18.56091  eV     1   --> A''            
     e( 26 - 26) =     18.58867  eV     1   --> A'             
     e( 27 - 27) =     18.85671  eV     1   --> A'             
     e( 28 - 28) =     19.07228  eV     1   --> A''            
     e( 29 - 29) =     19.24127  eV     1   --> A''            
     e( 30 - 30) =     20.49775  eV     1   --> A'             
     e( 31 - 31) =     20.74951  eV     1   --> A''            
     e( 32 - 32) =     20.97947  eV     1   --> A'             
     e( 33 - 33) =     23.42711  eV     1   --> A'             
     e( 34 - 34) =     23.84308  eV     1   --> A'             
     e( 35 - 35) =     24.78180  eV     1   --> A'             
     e( 36 - 36) =     25.05674  eV     1   --> A''            
     e( 37 - 37) =     25.30830  eV     1   --> A'             
     e( 38 - 38) =     26.97809  eV     1   --> A''            
     e( 39 - 39) =     28.67262  eV     1   --> A'             
     e( 40 - 40) =     28.69662  eV     1   --> A''            
     e( 41 - 41) =     30.47499  eV     1   --> A''            
     e( 42 - 42) =     34.25198  eV     1   --> A'             
     e( 43 - 43) =     34.38712  eV     1   --> A''            
     e( 44 - 44) =     34.40660  eV     1   --> A'             
     e( 45 - 45) =     36.33564  eV     1   --> A'             
     e( 46 - 46) =     36.78718  eV     1   --> A'             
     e( 47 - 47) =     37.94828  eV     1   --> A''            
     e( 48 - 48) =     38.37811  eV     1   --> A'             
     e( 49 - 49) =     39.10306  eV     1   --> A'             
     e( 50 - 50) =     40.03807  eV     1   --> A''            
     e( 51 - 51) =     40.12344  eV     1   --> A'             
     e( 52 - 52) =     40.55148  eV     1   --> A''            
     e( 53 - 53) =     41.11558  eV     1   --> A''            
     e( 54 - 54) =     41.14462  eV     1   --> A'             
     e( 55 - 55) =     41.55574  eV     1   --> A'             
     e( 56 - 56) =     42.41554  eV     1   --> A'             
     e( 57 - 57) =     42.65615  eV     1   --> A''            
     e( 58 - 58) =     42.97275  eV     1   --> A'             
     e( 59 - 59) =     43.19577  eV     1   --> A'             
     e( 60 - 60) =     45.37835  eV     1   --> A'             

 **************************************************************************

 **************************************************************************

                    xk=(   0.45833,   0.45833,   0.20678  )

     Band symmetry, C_s (m)     point group:

     e(  1 -  1) =    -16.18049  eV     1   --> A'             
     e(  2 -  2) =    -16.06053  eV     1   --> A'             
     e(  3 -  3) =    -16.05668  eV     1   --> A''            
     e(  4 -  4) =      1.42485  eV     1   --> A'             
     e(  5 -  5) =      3.30973  eV     1   --> A'             
     e(  6 -  6) =      3.58083  eV     1   --> A''            
     e(  7 -  7) =      3.94770  eV     1   --> A'             
     e(  8 -  8) =      4.19726  eV     1   --> A''            
     e(  9 -  9) =      4.23258  eV     1   --> A'             
     e( 10 - 10) =      6.14871  eV     1   --> A'             
     e( 11 - 11) =      6.19716  eV     1   --> A''            
     e( 12 - 12) =      7.13380  eV     1   --> A''            
     e( 13 - 13) =     12.51598  eV     1   --> A'             
     e( 14 - 14) =     13.79635  eV     1   --> A'             
     e( 15 - 15) =     13.81720  eV     1   --> A''            
     e( 16 - 16) =     14.51807  eV     1   --> A'             
     e( 17 - 17) =     15.21175  eV     1   --> A''            
     e( 18 - 18) =     15.25693  eV     1   --> A'             
     e( 19 - 19) =     16.23147  eV     1   --> A'             
     e( 20 - 20) =     16.37943  eV     1   --> A'             
     e( 21 - 21) =     16.93507  eV     1   --> A''            
     e( 22 - 22) =     17.20192  eV     1   --> A'             
     e( 23 - 23) =     17.77432  eV     1   --> A''            
     e( 24 - 24) =     17.89605  eV     1   --> A'             
     e( 25 - 25) =     18.54610  eV     1   --> A'             
     e( 26 - 26) =     18.97182  eV     1   --> A''            
     e( 27 - 27) =     19.13488  eV     1   --> A''            
     e( 28 - 28) =     19.23040  eV     1   --> A'             
     e( 29 - 29) =     19.44795  eV     1   --> A''            
     e( 30 - 30) =     20.37808  eV     1   --> A'             
     e( 31 - 31) =     20.95576  eV     1   --> A'             
     e( 32 - 32) =     21.27285  eV     1   --> A''            
     e( 33 - 33) =     23.59498  eV     1   --> A'             
     e( 34 - 34) =     23.74317  eV     1   --> A'             
     e( 35 - 35) =     24.62722  eV     1   --> A'             
     e( 36 - 36) =     24.85043  eV     1   --> A''            
     e( 37 - 37) =     25.31902  eV     1   --> A'             
     e( 38 - 38) =     26.18823  eV     1   --> A''            
     e( 39 - 39) =     27.39639  eV     1   --> A''            
     e( 40 - 40) =     27.40186  eV     1   --> A'             
     e( 41 - 41) =     31.96172  eV     1   --> A''            
     e( 42 - 42) =     34.57346  eV     1   --> A'             
     e( 43 - 43) =     35.24388  eV     1   --> A'             
     e( 44 - 44) =     35.28400  eV     1   --> A''            
     e( 45 - 45) =     36.10857  eV     1   --> A'             
     e( 46 - 46) =     36.65170  eV     1   --> A'             
     e( 47 - 47) =     37.69253  eV     1   --> A''            
     e( 48 - 48) =     38.07732  eV     1   --> A'             
     e( 49 - 49) =     38.85898  eV     1   --> A'             
     e( 50 - 50) =     39.66517  eV     1   --> A'             
     e( 51 - 51) =     39.71415  eV     1   --> A''            
     e( 52 - 52) =     40.32702  eV     1   --> A''            
     e( 53 - 53) =     40.37556  eV     1   --> A'             
     e( 54 - 54) =     40.59800  eV     1   --> A''            
     e( 55 - 55) =     40.76852  eV     1   --> A'             
     e( 56 - 56) =     42.52218  eV     1   --> A'             
     e( 57 - 57) =     43.02108  eV     1   --> A'             
     e( 58 - 58) =     43.38952  eV     1   --> A'             
     e( 59 - 59) =     43.39317  eV     1   --> A''            
     e( 60 - 60) =     43.81638  eV     1   --> A'             

 **************************************************************************

 **************************************************************************

                    xk=(   0.45833,   0.45833,   0.28949  )

     Band symmetry, C_s (m)     point group:

     e(  1 -  1) =    -16.15673  eV     1   --> A'             
     e(  2 -  2) =    -16.09754  eV     1   --> A'             
     e(  3 -  3) =    -16.09598  eV     1   --> A''            
     e(  4 -  4) =      1.30503  eV     1   --> A'             
     e(  5 -  5) =      3.41614  eV     1   --> A''            
     e(  6 -  6) =      3.67673  eV     1   --> A'             
     e(  7 -  7) =      3.78724  eV     1   --> A'             
     e(  8 -  8) =      4.21611  eV     1   --> A'             
     e(  9 -  9) =      4.21783  eV     1   --> A''            
     e( 10 - 10) =      6.46336  eV     1   --> A'             
     e( 11 - 11) =      6.55090  eV     1   --> A''            
     e( 12 - 12) =      7.02677  eV     1   --> A''            
     e( 13 - 13) =     12.29376  eV     1   --> A'             
     e( 14 - 14) =     13.02458  eV     1   --> A'             
     e( 15 - 15) =     13.04840  eV     1   --> A''            
     e( 16 - 16) =     14.61684  eV     1   --> A'             
     e( 17 - 17) =     14.95874  eV     1   --> A''            
     e( 18 - 18) =     15.10751  eV     1   --> A'             
     e( 19 - 19) =     16.27034  eV     1   --> A'             
     e( 20 - 20) =     16.98807  eV     1   --> A''            
     e( 21 - 21) =     17.42999  eV     1   --> A'             
     e( 22 - 22) =     17.64100  eV     1   --> A'             
     e( 23 - 23) =     17.73315  eV     1   --> A''            
     e( 24 - 24) =     18.14218  eV     1   --> A'             
     e( 25 - 25) =     18.30997  eV     1   --> A'             
     e( 26 - 26) =     19.24172  eV     1   --> A''            
     e( 27 - 27) =     19.43756  eV     1   --> A''            
     e( 28 - 28) =     19.52322  eV     1   --> A'             
     e( 29 - 29) =     19.62136  eV     1   --> A''            
     e( 30 - 30) =     19.67807  eV     1   --> A'             
     e( 31 - 31) =     21.58101  eV     1   --> A'             
     e( 32 - 32) =     21.95255  eV     1   --> A''            
     e( 33 - 33) =     23.52111  eV     1   --> A'             
     e( 34 - 34) =     23.92600  eV     1   --> A'             
     e( 35 - 35) =     24.40200  eV     1   --> A'             
     e( 36 - 36) =     24.55495  eV     1   --> A''            
     e( 37 - 37) =     25.42266  eV     1   --> A'             
     e( 38 - 38) =     25.58577  eV     1   --> A''            
     e( 39 - 39) =     26.21287  eV     1   --> A'             
     e( 40 - 40) =     26.23902  eV     1   --> A''            
     e( 41 - 41) =     33.59035  eV     1   --> A''            
     e( 42 - 42) =     35.03095  eV     1   --> A'             
     e( 43 - 43) =     35.81381  eV     1   --> A'             
     e( 44 - 44) =     35.95457  eV     1   --> A''            
     e( 45 - 45) =     36.15178  eV     1   --> A'             
     e( 46 - 46) =     36.49382  eV     1   --> A'             
     e( 47 - 47) =     37.41997  eV     1   --> A''            
     e( 48 - 48) =     37.73235  eV     1   --> A'             
     e( 49 - 49) =     38.53010  eV     1   --> A'             
     e( 50 - 50) =     38.77035  eV     1   --> A'             
     e( 51 - 51) =     39.29332  eV     1   --> A''            
     e( 52 - 52) =     39.37739  eV     1   --> A'             
     e( 53 - 53) =     39.51668  eV     1   --> A''            
     e( 54 - 54) =     39.79900  eV     1   --> A'             
     e( 55 - 55) =     40.61832  eV     1   --> A''            
     e( 56 - 56) =     41.93034  eV     1   --> A'             
     e( 57 - 57) =     41.98888  eV     1   --> A'             
     e( 58 - 58) =     44.11814  eV     1   --> A''            
     e( 59 - 59) =     44.16994  eV     1   --> A'             
     e( 60 - 60) =     44.34997  eV     1   --> A'             

 **************************************************************************

 **************************************************************************

                    xk=(   0.45833,   0.45833,   0.37220  )

     Band symmetry, C_s (m)     point group:

     e(  1 -  1) =    -16.14437  eV     1   --> A'             
     e(  2 -  2) =    -16.13006  eV     1   --> A''            
     e(  3 -  3) =    -16.12163  eV     1   --> A'             
     e(  4 -  4) =      1.14400  eV     1   --> A'             
     e(  5 -  5) =      3.30168  eV     1   --> A''            
     e(  6 -  6) =      3.48705  eV     1   --> A'             
     e(  7 -  7) =      3.92657  eV     1   --> A'             
     e(  8 -  8) =      4.12864  eV     1   --> A''            
     e(  9 -  9) =      4.18404  eV     1   --> A'             
     e( 10 - 10) =      6.69265  eV     1   --> A'             
     e( 11 - 11) =      6.71185  eV     1   --> A''            
     e( 12 - 12) =      6.96801  eV     1   --> A''            
     e( 13 - 13) =     12.06815  eV     1   --> A'             
     e( 14 - 14) =     12.32940  eV     1   --> A'             
     e( 15 - 15) =     12.33310  eV     1   --> A''            
     e( 16 - 16) =     14.55818  eV     1   --> A''            
     e( 17 - 17) =     14.71195  eV     1   --> A'             
     e( 18 - 18) =     14.97974  eV     1   --> A'             
     e( 19 - 19) =     16.51145  eV     1   --> A'             
     e( 20 - 20) =     16.92647  eV     1   --> A''            
     e( 21 - 21) =     17.54572  eV     1   --> A'             
     e( 22 - 22) =     17.80298  eV     1   --> A''            
     e( 23 - 23) =     18.09838  eV     1   --> A'             
     e( 24 - 24) =     18.25597  eV     1   --> A'             
     e( 25 - 25) =     18.31549  eV     1   --> A'             
     e( 26 - 26) =     18.88950  eV     1   --> A'             
     e( 27 - 27) =     19.24449  eV     1   --> A''            
     e( 28 - 28) =     19.52931  eV     1   --> A''            
     e( 29 - 29) =     19.64413  eV     1   --> A'             
     e( 30 - 30) =     19.74987  eV     1   --> A''            
     e( 31 - 31) =     22.06884  eV     1   --> A'             
     e( 32 - 32) =     22.51395  eV     1   --> A''            
     e( 33 - 33) =     23.06597  eV     1   --> A'             
     e( 34 - 34) =     24.06087  eV     1   --> A'             
     e( 35 - 35) =     24.14500  eV     1   --> A'             
     e( 36 - 36) =     24.20469  eV     1   --> A''            
     e( 37 - 37) =     25.17976  eV     1   --> A''            
     e( 38 - 38) =     25.33236  eV     1   --> A'             
     e( 39 - 39) =     25.35136  eV     1   --> A''            
     e( 40 - 40) =     25.60548  eV     1   --> A'             
     e( 41 - 41) =     35.28485  eV     1   --> A''            
     e( 42 - 42) =     35.62533  eV     1   --> A'             
     e( 43 - 43) =     36.02906  eV     1   --> A'             
     e( 44 - 44) =     36.23331  eV     1   --> A'             
     e( 45 - 45) =     36.37332  eV     1   --> A''            
     e( 46 - 46) =     36.56624  eV     1   --> A'             
     e( 47 - 47) =     37.24915  eV     1   --> A''            
     e( 48 - 48) =     37.36744  eV     1   --> A'             
     e( 49 - 49) =     37.58054  eV     1   --> A'             
     e( 50 - 50) =     38.33883  eV     1   --> A'             
     e( 51 - 51) =     38.51915  eV     1   --> A'             
     e( 52 - 52) =     38.82660  eV     1   --> A''            
     e( 53 - 53) =     38.94816  eV     1   --> A''            
     e( 54 - 54) =     39.14972  eV     1   --> A'             
     e( 55 - 55) =     40.65175  eV     1   --> A''            
     e( 56 - 56) =     40.67700  eV     1   --> A'             
     e( 57 - 57) =     41.30195  eV     1   --> A'             
     e( 58 - 58) =     42.00266  eV     1   --> A''            
     e( 59 - 59) =     44.78813  eV     1   --> A'             
     e( 60 - 60) =     44.80420  eV     1   --> A''            

 **************************************************************************

 **************************************************************************

                    xk=(   0.45833,   0.45833,   0.45491  )

     Band symmetry, C_s (m)     point group:

     e(  1 -  1) =    -16.15521  eV     1   --> A'             
     e(  2 -  2) =    -16.14910  eV     1   --> A''            
     e(  3 -  3) =    -16.11627  eV     1   --> A'             
     e(  4 -  4) =      1.20791  eV     1   --> A'             
     e(  5 -  5) =      3.35444  eV     1   --> A''            
     e(  6 -  6) =      3.47971  eV     1   --> A'             
     e(  7 -  7) =      4.22403  eV     1   --> A'             
     e(  8 -  8) =      4.32957  eV     1   --> A''            
     e(  9 -  9) =      4.35038  eV     1   --> A'             
     e( 10 - 10) =      6.95192  eV     1   --> A''            
     e( 11 - 11) =      6.96345  eV     1   --> A'             
     e( 12 - 12) =      7.03660  eV     1   --> A''            
     e( 13 - 13) =     11.91781  eV     1   --> A'             
     e( 14 - 14) =     11.97016  eV     1   --> A''            
     e( 15 - 15) =     11.99479  eV     1   --> A'             
     e( 16 - 16) =     15.08344  eV     1   --> A'             
     e( 17 - 17) =     15.32024  eV     1   --> A''            
     e( 18 - 18) =     15.37315  eV     1   --> A'             
     e( 19 - 19) =     16.82871  eV     1   --> A'             
     e( 20 - 20) =     16.92784  eV     1   --> A''            
     e( 21 - 21) =     17.62895  eV     1   --> A'             
     e( 22 - 22) =     17.90755  eV     1   --> A'             
     e( 23 - 23) =     17.92192  eV     1   --> A''            
     e( 24 - 24) =     18.39874  eV     1   --> A'             
     e( 25 - 25) =     18.42411  eV     1   --> A'             
     e( 26 - 26) =     19.46160  eV     1   --> A'             
     e( 27 - 27) =     19.72036  eV     1   --> A''            
     e( 28 - 28) =     19.78448  eV     1   --> A''            
     e( 29 - 29) =     19.83252  eV     1   --> A'             
     e( 30 - 30) =     19.90524  eV     1   --> A''            
     e( 31 - 31) =     22.44026  eV     1   --> A'             
     e( 32 - 32) =     22.78327  eV     1   --> A'             
     e( 33 - 33) =     22.90441  eV     1   --> A''            
     e( 34 - 34) =     24.03784  eV     1   --> A'             
     e( 35 - 35) =     24.06918  eV     1   --> A''            
     e( 36 - 36) =     24.25933  eV     1   --> A'             
     e( 37 - 37) =     24.97095  eV     1   --> A''            
     e( 38 - 38) =     24.98487  eV     1   --> A'             
     e( 39 - 39) =     25.00052  eV     1   --> A''            
     e( 40 - 40) =     25.96789  eV     1   --> A'             
     e( 41 - 41) =     36.11520  eV     1   --> A'             
     e( 42 - 42) =     36.24856  eV     1   --> A''            
     e( 43 - 43) =     36.28921  eV     1   --> A'             
     e( 44 - 44) =     36.39980  eV     1   --> A'             
     e( 45 - 45) =     36.68381  eV     1   --> A'             
     e( 46 - 46) =     36.88650  eV     1   --> A'             
     e( 47 - 47) =     36.95727  eV     1   --> A''            
     e( 48 - 48) =     37.26961  eV     1   --> A'             
     e( 49 - 49) =     37.64476  eV     1   --> A''            
     e( 50 - 50) =     37.67960  eV     1   --> A'             
     e( 51 - 51) =     38.28836  eV     1   --> A'             
     e( 52 - 52) =     38.51125  eV     1   --> A''            
     e( 53 - 53) =     38.72750  eV     1   --> A'             
     e( 54 - 54) =     38.73646  eV     1   --> A''            
     e( 55 - 55) =     39.96469  eV     1   --> A''            
     e( 56 - 56) =     40.08566  eV     1   --> A'             
     e( 57 - 57) =     40.69877  eV     1   --> A''            
     e( 58 - 58) =     40.96062  eV     1   --> A'             
     e( 59 - 59) =     45.33769  eV     1   --> A'             
     e( 60 - 60) =     45.38760  eV     1   --> A''            

 **************************************************************************

     BANDS        :      2.35s CPU      2.42s WALL


   This run was terminated on:  11:30:13  19Oct2024            

=------------------------------------------------------------------------------=
   JOB DONE.
=------------------------------------------------------------------------------=
