
     Program DOS v.7.3.1 starts on 18Oct2024 at 23: 1:11 

     This program is part of the open-source Quantum ESPRESSO suite
     for quantum simulation of materials; please cite
         "P. Giannozzi et al., J. Phys.:Condens. Matter 21 395502 (2009);
         "P. Giannozzi et al., J. Phys.:Condens. Matter 29 465901 (2017);
         "P. Giannozzi et al., J. Chem. Phys. 152 154105 (2020);
          URL http://www.quantum-espresso.org", 
     in publications or presentations arising from this work. More details at
     http://www.quantum-espresso.org/quote

     Parallel version (MPI), running on     1 processors

     MPI processes distributed on     1 nodes
     22418 MiB available memory on the printing compute node when the environment starts


     Reading xml data from directory:

     ./out/BaTiO3.save/
     file Ba.pbe-mt_fhi.UPF: wavefunction(s)  6p 5d 4f renormalized
     file Ti.pbe-mt_fhi.UPF: wavefunction(s)  4f renormalized
     file O.pbe-mt_fhi.UPF: wavefunction(s)  4f renormalized

     IMPORTANT: XC functional enforced from input :
     Exchange-correlation= PBE
                           (   1   4   3   4   0   0   0)
     Any further DFT definition will be discarded
     Please, verify this is what you really want


     G-vector sticks info
     --------------------
     sticks:   dense  smooth     PW     G-vecs:    dense   smooth      PW
     Sum         325     325    109                 4441     4441     847

     Using Slab Decomposition


     Gaussian broadening (read from file): ngauss,degauss=   0    0.010000


     DOS          :      0.55s CPU      0.56s WALL


   This run was terminated on:  23: 1:12  18Oct2024            

=------------------------------------------------------------------------------=
   JOB DONE.
=------------------------------------------------------------------------------=
