
     Program PWSCF v.7.3.1 starts on 18Oct2024 at 22:46:30 

     This program is part of the open-source Quantum ESPRESSO suite
     for quantum simulation of materials; please cite
         "P. Giannozzi et al., J. Phys.:Condens. Matter 21 395502 (2009);
         "P. Giannozzi et al., J. Phys.:Condens. Matter 29 465901 (2017);
         "P. Giannozzi et al., J. Chem. Phys. 152 154105 (2020);
          URL http://www.quantum-espresso.org", 
     in publications or presentations arising from this work. More details at
     http://www.quantum-espresso.org/quote

     Parallel version (MPI), running on     1 processors

     MPI processes distributed on     1 nodes
     22590 MiB available memory on the printing compute node when the environment starts

     Waiting for input...
     Reading input from standard input

     Current dimensions of program PWSCF are:
     Max number of different atomic species (ntypx) = 10
     Max number of k-points (npk) =  40000
     Max angular momentum in pseudopotentials (lmaxx) =  4
     file Ba.pbe-mt_fhi.UPF: wavefunction(s)  6p 5d 4f renormalized
     file Ti.pbe-mt_fhi.UPF: wavefunction(s)  4f renormalized
     file O.pbe-mt_fhi.UPF: wavefunction(s)  4f renormalized

     Atomic positions and unit cell read from directory:
     ./out/BaTiO3.save/


     Subspace diagonalization in iterative solution of the eigenvalue problem:
     a serial algorithm will be used


     G-vector sticks info
     --------------------
     sticks:   dense  smooth     PW     G-vecs:    dense   smooth      PW
     Sum         325     325    109                 4441     4441     847

     Using Slab Decomposition



     bravais-lattice index     =            6
     lattice parameter (alat)  =       7.5400  a.u.
     unit-cell volume          =     431.8853 (a.u.)^3
     number of atoms/cell      =            5
     number of atomic types    =            3
     number of electrons       =        24.00
     number of Kohn-Sham states=           60
     kinetic-energy cutoff     =      18.0000  Ry
     charge density cutoff     =      72.0000  Ry
     Exchange-correlation= PBE
                           (   1   4   3   4   0   0   0)

     celldm(1)=   7.540007  celldm(2)=   0.000000  celldm(3)=   1.007519
     celldm(4)=   0.000000  celldm(5)=   0.000000  celldm(6)=   0.000000

     crystal axes: (cart. coord. in units of alat)
               a(1) = (   1.000000   0.000000   0.000000 )  
               a(2) = (   0.000000   1.000000   0.000000 )  
               a(3) = (   0.000000   0.000000   1.007519 )  

     reciprocal axes: (cart. coord. in units 2 pi/alat)
               b(1) = (  1.000000  0.000000  0.000000 )  
               b(2) = (  0.000000  1.000000  0.000000 )  
               b(3) = (  0.000000  0.000000  0.992537 )  


     PseudoPot. # 1 for Ba read from file:
     ./Ba.pbe-mt_fhi.UPF
     MD5 check sum: e433903a3ae973a33803749d57a646fb
     Pseudo is Norm-conserving + core correction, Zval =  2.0
     Generated using FHI98PP, converted with fhi2upf.x v.5.0.2
     Using radial grid of  553 points,  3 beta functions with: 
                l(1) =   1
                l(2) =   2
                l(3) =   3

     PseudoPot. # 2 for Ti read from file:
     ./Ti.pbe-mt_fhi.UPF
     MD5 check sum: d63cd306a9b93ee747718a82aae46d3d
     Pseudo is Norm-conserving, Zval =  4.0
     Generated using FHI98PP, converted with fhi2upf.x v.5.0.2
     Using radial grid of  515 points,  3 beta functions with: 
                l(1) =   0
                l(2) =   2
                l(3) =   3

     PseudoPot. # 3 for O  read from file:
     ./O.pbe-mt_fhi.UPF
     MD5 check sum: 1bb3d81471536849aa309dd26bc7a493
     Pseudo is Norm-conserving, Zval =  6.0
     Generated using FHI98PP, converted with fhi2upf.x v.5.0.2
     Using radial grid of  473 points,  3 beta functions with: 
                l(1) =   0
                l(2) =   1
                l(3) =   3

     atomic species   valence    mass     pseudopotential
     Ba                2.00   137.32700     Ba( 1.00)
     Ti                4.00    47.86700     Ti( 1.00)
     O                 6.00    15.99900     O ( 1.00)

      8 Sym. Ops. (no inversion) found


                                    s                        frac. trans.

      isym =  1     identity                                     

 cryst.   s( 1) = (     1          0          0      )
                  (     0          1          0      )
                  (     0          0          1      )

 cart.    s( 1) = (  1.0000000  0.0000000  0.0000000 )
                  (  0.0000000  1.0000000  0.0000000 )
                  (  0.0000000  0.0000000  1.0000000 )


      isym =  2     180 deg rotation - cart. axis [0,0,1]        

 cryst.   s( 2) = (    -1          0          0      )
                  (     0         -1          0      )
                  (     0          0          1      )

 cart.    s( 2) = ( -1.0000000  0.0000000  0.0000000 )
                  (  0.0000000 -1.0000000  0.0000000 )
                  (  0.0000000  0.0000000  1.0000000 )


      isym =  3      90 deg rotation - cart. axis [0,0,-1]       

 cryst.   s( 3) = (     0         -1          0      )
                  (     1          0          0      )
                  (     0          0          1      )

 cart.    s( 3) = (  0.0000000  1.0000000  0.0000000 )
                  ( -1.0000000  0.0000000  0.0000000 )
                  (  0.0000000  0.0000000  1.0000000 )


      isym =  4      90 deg rotation - cart. axis [0,0,1]        

 cryst.   s( 4) = (     0          1          0      )
                  (    -1          0          0      )
                  (     0          0          1      )

 cart.    s( 4) = (  0.0000000 -1.0000000  0.0000000 )
                  (  1.0000000  0.0000000  0.0000000 )
                  (  0.0000000  0.0000000  1.0000000 )


      isym =  5     inv. 180 deg rotation - cart. axis [0,1,0]   

 cryst.   s( 5) = (     1          0          0      )
                  (     0         -1          0      )
                  (     0          0          1      )

 cart.    s( 5) = (  1.0000000  0.0000000  0.0000000 )
                  (  0.0000000 -1.0000000  0.0000000 )
                  (  0.0000000  0.0000000  1.0000000 )


      isym =  6     inv. 180 deg rotation - cart. axis [1,0,0]   

 cryst.   s( 6) = (    -1          0          0      )
                  (     0          1          0      )
                  (     0          0          1      )

 cart.    s( 6) = ( -1.0000000  0.0000000  0.0000000 )
                  (  0.0000000  1.0000000  0.0000000 )
                  (  0.0000000  0.0000000  1.0000000 )


      isym =  7     inv. 180 deg rotation - cart. axis [1,1,0]   

 cryst.   s( 7) = (     0         -1          0      )
                  (    -1          0          0      )
                  (     0          0          1      )

 cart.    s( 7) = (  0.0000000 -1.0000000  0.0000000 )
                  ( -1.0000000  0.0000000  0.0000000 )
                  (  0.0000000  0.0000000  1.0000000 )


      isym =  8     inv. 180 deg rotation - cart. axis [1,-1,0]  

 cryst.   s( 8) = (     0          1          0      )
                  (     1          0          0      )
                  (     0          0          1      )

 cart.    s( 8) = (  0.0000000  1.0000000  0.0000000 )
                  (  1.0000000  0.0000000  0.0000000 )
                  (  0.0000000  0.0000000  1.0000000 )


     point group C_4v (4mm) 
     there are  5 classes
     the character table:

       E     2C4   C2    2s_v  2s_d 
A_1    1.00  1.00  1.00  1.00  1.00
A_2    1.00  1.00  1.00 -1.00 -1.00
B_1    1.00 -1.00  1.00  1.00 -1.00
B_2    1.00 -1.00  1.00 -1.00  1.00
E      2.00  0.00 -2.00  0.00  0.00

     the symmetry operations in each class and the name of the first element:

     E        1
          identity                                               
     2C4      3    4
           90 deg rotation - cart. axis [0,0,-1]                 
     C2       2
          180 deg rotation - cart. axis [0,0,1]                  
     2s_v     5    6
          inv. 180 deg rotation - cart. axis [0,1,0]             
     2s_d     7    8
          inv. 180 deg rotation - cart. axis [1,1,0]             

   Cartesian axes

     site n.     atom                  positions (alat units)
         1        Ba     tau(   1) = (   0.0000000   0.0000000   0.0000000  )
         2        Ti     tau(   2) = (   0.5000000   0.5000000   0.5070000  )
         3        O      tau(   3) = (   0.5000000   0.5000000   0.0000000  )
         4        O      tau(   4) = (   0.5000000   0.0000000   0.5210000  )
         5        O      tau(   5) = (   0.0000000   0.5000000   0.5210000  )

   Crystallographic axes

     site n.     atom                  positions (cryst. coord.)
         1        Ba     tau(   1) = (  0.0000000  0.0000000  0.0000000  )
         2        Ti     tau(   2) = (  0.5000000  0.5000000  0.5032164  )
         3        O      tau(   3) = (  0.5000000  0.5000000  0.0000000  )
         4        O      tau(   4) = (  0.5000000  0.0000000  0.5171120  )
         5        O      tau(   5) = (  0.0000000  0.5000000  0.5171120  )

     number of k points=   126  Gaussian smearing, width (Ry)=  0.0100
                       cart. coord. in units 2pi/alat
        k(    1) = (   0.0416667   0.0416667   0.0413557), wk =   0.0092593
        k(    2) = (   0.0416667   0.0416667   0.1240672), wk =   0.0092593
        k(    3) = (   0.0416667   0.0416667   0.2067786), wk =   0.0092593
        k(    4) = (   0.0416667   0.0416667   0.2894900), wk =   0.0092593
        k(    5) = (   0.0416667   0.0416667   0.3722015), wk =   0.0092593
        k(    6) = (   0.0416667   0.0416667   0.4549129), wk =   0.0092593
        k(    7) = (   0.0416667   0.1250000   0.0413557), wk =   0.0185185
        k(    8) = (   0.0416667   0.1250000   0.1240672), wk =   0.0185185
        k(    9) = (   0.0416667   0.1250000   0.2067786), wk =   0.0185185
        k(   10) = (   0.0416667   0.1250000   0.2894900), wk =   0.0185185
        k(   11) = (   0.0416667   0.1250000   0.3722015), wk =   0.0185185
        k(   12) = (   0.0416667   0.1250000   0.4549129), wk =   0.0185185
        k(   13) = (   0.0416667   0.2083333   0.0413557), wk =   0.0185185
        k(   14) = (   0.0416667   0.2083333   0.1240672), wk =   0.0185185
        k(   15) = (   0.0416667   0.2083333   0.2067786), wk =   0.0185185
        k(   16) = (   0.0416667   0.2083333   0.2894900), wk =   0.0185185
        k(   17) = (   0.0416667   0.2083333   0.3722015), wk =   0.0185185
        k(   18) = (   0.0416667   0.2083333   0.4549129), wk =   0.0185185
        k(   19) = (   0.0416667   0.2916667   0.0413557), wk =   0.0185185
        k(   20) = (   0.0416667   0.2916667   0.1240672), wk =   0.0185185
        k(   21) = (   0.0416667   0.2916667   0.2067786), wk =   0.0185185
        k(   22) = (   0.0416667   0.2916667   0.2894900), wk =   0.0185185
        k(   23) = (   0.0416667   0.2916667   0.3722015), wk =   0.0185185
        k(   24) = (   0.0416667   0.2916667   0.4549129), wk =   0.0185185
        k(   25) = (   0.0416667   0.3750000   0.0413557), wk =   0.0185185
        k(   26) = (   0.0416667   0.3750000   0.1240672), wk =   0.0185185
        k(   27) = (   0.0416667   0.3750000   0.2067786), wk =   0.0185185
        k(   28) = (   0.0416667   0.3750000   0.2894900), wk =   0.0185185
        k(   29) = (   0.0416667   0.3750000   0.3722015), wk =   0.0185185
        k(   30) = (   0.0416667   0.3750000   0.4549129), wk =   0.0185185
        k(   31) = (   0.0416667   0.4583333   0.0413557), wk =   0.0185185
        k(   32) = (   0.0416667   0.4583333   0.1240672), wk =   0.0185185
        k(   33) = (   0.0416667   0.4583333   0.2067786), wk =   0.0185185
        k(   34) = (   0.0416667   0.4583333   0.2894900), wk =   0.0185185
        k(   35) = (   0.0416667   0.4583333   0.3722015), wk =   0.0185185
        k(   36) = (   0.0416667   0.4583333   0.4549129), wk =   0.0185185
        k(   37) = (   0.1250000   0.1250000   0.0413557), wk =   0.0092593
        k(   38) = (   0.1250000   0.1250000   0.1240672), wk =   0.0092593
        k(   39) = (   0.1250000   0.1250000   0.2067786), wk =   0.0092593
        k(   40) = (   0.1250000   0.1250000   0.2894900), wk =   0.0092593
        k(   41) = (   0.1250000   0.1250000   0.3722015), wk =   0.0092593
        k(   42) = (   0.1250000   0.1250000   0.4549129), wk =   0.0092593
        k(   43) = (   0.1250000   0.2083333   0.0413557), wk =   0.0185185
        k(   44) = (   0.1250000   0.2083333   0.1240672), wk =   0.0185185
        k(   45) = (   0.1250000   0.2083333   0.2067786), wk =   0.0185185
        k(   46) = (   0.1250000   0.2083333   0.2894900), wk =   0.0185185
        k(   47) = (   0.1250000   0.2083333   0.3722015), wk =   0.0185185
        k(   48) = (   0.1250000   0.2083333   0.4549129), wk =   0.0185185
        k(   49) = (   0.1250000   0.2916667   0.0413557), wk =   0.0185185
        k(   50) = (   0.1250000   0.2916667   0.1240672), wk =   0.0185185
        k(   51) = (   0.1250000   0.2916667   0.2067786), wk =   0.0185185
        k(   52) = (   0.1250000   0.2916667   0.2894900), wk =   0.0185185
        k(   53) = (   0.1250000   0.2916667   0.3722015), wk =   0.0185185
        k(   54) = (   0.1250000   0.2916667   0.4549129), wk =   0.0185185
        k(   55) = (   0.1250000   0.3750000   0.0413557), wk =   0.0185185
        k(   56) = (   0.1250000   0.3750000   0.1240672), wk =   0.0185185
        k(   57) = (   0.1250000   0.3750000   0.2067786), wk =   0.0185185
        k(   58) = (   0.1250000   0.3750000   0.2894900), wk =   0.0185185
        k(   59) = (   0.1250000   0.3750000   0.3722015), wk =   0.0185185
        k(   60) = (   0.1250000   0.3750000   0.4549129), wk =   0.0185185
        k(   61) = (   0.1250000   0.4583333   0.0413557), wk =   0.0185185
        k(   62) = (   0.1250000   0.4583333   0.1240672), wk =   0.0185185
        k(   63) = (   0.1250000   0.4583333   0.2067786), wk =   0.0185185
        k(   64) = (   0.1250000   0.4583333   0.2894900), wk =   0.0185185
        k(   65) = (   0.1250000   0.4583333   0.3722015), wk =   0.0185185
        k(   66) = (   0.1250000   0.4583333   0.4549129), wk =   0.0185185
        k(   67) = (   0.2083333   0.2083333   0.0413557), wk =   0.0092593
        k(   68) = (   0.2083333   0.2083333   0.1240672), wk =   0.0092593
        k(   69) = (   0.2083333   0.2083333   0.2067786), wk =   0.0092593
        k(   70) = (   0.2083333   0.2083333   0.2894900), wk =   0.0092593
        k(   71) = (   0.2083333   0.2083333   0.3722015), wk =   0.0092593
        k(   72) = (   0.2083333   0.2083333   0.4549129), wk =   0.0092593
        k(   73) = (   0.2083333   0.2916667   0.0413557), wk =   0.0185185
        k(   74) = (   0.2083333   0.2916667   0.1240672), wk =   0.0185185
        k(   75) = (   0.2083333   0.2916667   0.2067786), wk =   0.0185185
        k(   76) = (   0.2083333   0.2916667   0.2894900), wk =   0.0185185
        k(   77) = (   0.2083333   0.2916667   0.3722015), wk =   0.0185185
        k(   78) = (   0.2083333   0.2916667   0.4549129), wk =   0.0185185
        k(   79) = (   0.2083333   0.3750000   0.0413557), wk =   0.0185185
        k(   80) = (   0.2083333   0.3750000   0.1240672), wk =   0.0185185
        k(   81) = (   0.2083333   0.3750000   0.2067786), wk =   0.0185185
        k(   82) = (   0.2083333   0.3750000   0.2894900), wk =   0.0185185
        k(   83) = (   0.2083333   0.3750000   0.3722015), wk =   0.0185185
        k(   84) = (   0.2083333   0.3750000   0.4549129), wk =   0.0185185
        k(   85) = (   0.2083333   0.4583333   0.0413557), wk =   0.0185185
        k(   86) = (   0.2083333   0.4583333   0.1240672), wk =   0.0185185
        k(   87) = (   0.2083333   0.4583333   0.2067786), wk =   0.0185185
        k(   88) = (   0.2083333   0.4583333   0.2894900), wk =   0.0185185
        k(   89) = (   0.2083333   0.4583333   0.3722015), wk =   0.0185185
        k(   90) = (   0.2083333   0.4583333   0.4549129), wk =   0.0185185
        k(   91) = (   0.2916667   0.2916667   0.0413557), wk =   0.0092593
        k(   92) = (   0.2916667   0.2916667   0.1240672), wk =   0.0092593
        k(   93) = (   0.2916667   0.2916667   0.2067786), wk =   0.0092593
        k(   94) = (   0.2916667   0.2916667   0.2894900), wk =   0.0092593
        k(   95) = (   0.2916667   0.2916667   0.3722015), wk =   0.0092593
        k(   96) = (   0.2916667   0.2916667   0.4549129), wk =   0.0092593
        k(   97) = (   0.2916667   0.3750000   0.0413557), wk =   0.0185185
        k(   98) = (   0.2916667   0.3750000   0.1240672), wk =   0.0185185
        k(   99) = (   0.2916667   0.3750000   0.2067786), wk =   0.0185185
        k(  100) = (   0.2916667   0.3750000   0.2894900), wk =   0.0185185
        k(  101) = (   0.2916667   0.3750000   0.3722015), wk =   0.0185185
        k(  102) = (   0.2916667   0.3750000   0.4549129), wk =   0.0185185
        k(  103) = (   0.2916667   0.4583333   0.0413557), wk =   0.0185185
        k(  104) = (   0.2916667   0.4583333   0.1240672), wk =   0.0185185
        k(  105) = (   0.2916667   0.4583333   0.2067786), wk =   0.0185185
        k(  106) = (   0.2916667   0.4583333   0.2894900), wk =   0.0185185
        k(  107) = (   0.2916667   0.4583333   0.3722015), wk =   0.0185185
        k(  108) = (   0.2916667   0.4583333   0.4549129), wk =   0.0185185
        k(  109) = (   0.3750000   0.3750000   0.0413557), wk =   0.0092593
        k(  110) = (   0.3750000   0.3750000   0.1240672), wk =   0.0092593
        k(  111) = (   0.3750000   0.3750000   0.2067786), wk =   0.0092593
        k(  112) = (   0.3750000   0.3750000   0.2894900), wk =   0.0092593
        k(  113) = (   0.3750000   0.3750000   0.3722015), wk =   0.0092593
        k(  114) = (   0.3750000   0.3750000   0.4549129), wk =   0.0092593
        k(  115) = (   0.3750000   0.4583333   0.0413557), wk =   0.0185185
        k(  116) = (   0.3750000   0.4583333   0.1240672), wk =   0.0185185
        k(  117) = (   0.3750000   0.4583333   0.2067786), wk =   0.0185185
        k(  118) = (   0.3750000   0.4583333   0.2894900), wk =   0.0185185
        k(  119) = (   0.3750000   0.4583333   0.3722015), wk =   0.0185185
        k(  120) = (   0.3750000   0.4583333   0.4549129), wk =   0.0185185
        k(  121) = (   0.4583333   0.4583333   0.0413557), wk =   0.0092593
        k(  122) = (   0.4583333   0.4583333   0.1240672), wk =   0.0092593
        k(  123) = (   0.4583333   0.4583333   0.2067786), wk =   0.0092593
        k(  124) = (   0.4583333   0.4583333   0.2894900), wk =   0.0092593
        k(  125) = (   0.4583333   0.4583333   0.3722015), wk =   0.0092593
        k(  126) = (   0.4583333   0.4583333   0.4549129), wk =   0.0092593

                       cryst. coord.
        k(    1) = (   0.0416667   0.0416667   0.0416667), wk =   0.0092593
        k(    2) = (   0.0416667   0.0416667   0.1250000), wk =   0.0092593
        k(    3) = (   0.0416667   0.0416667   0.2083333), wk =   0.0092593
        k(    4) = (   0.0416667   0.0416667   0.2916667), wk =   0.0092593
        k(    5) = (   0.0416667   0.0416667   0.3750000), wk =   0.0092593
        k(    6) = (   0.0416667   0.0416667   0.4583333), wk =   0.0092593
        k(    7) = (   0.0416667   0.1250000   0.0416667), wk =   0.0185185
        k(    8) = (   0.0416667   0.1250000   0.1250000), wk =   0.0185185
        k(    9) = (   0.0416667   0.1250000   0.2083333), wk =   0.0185185
        k(   10) = (   0.0416667   0.1250000   0.2916667), wk =   0.0185185
        k(   11) = (   0.0416667   0.1250000   0.3750000), wk =   0.0185185
        k(   12) = (   0.0416667   0.1250000   0.4583333), wk =   0.0185185
        k(   13) = (   0.0416667   0.2083333   0.0416667), wk =   0.0185185
        k(   14) = (   0.0416667   0.2083333   0.1250000), wk =   0.0185185
        k(   15) = (   0.0416667   0.2083333   0.2083333), wk =   0.0185185
        k(   16) = (   0.0416667   0.2083333   0.2916667), wk =   0.0185185
        k(   17) = (   0.0416667   0.2083333   0.3750000), wk =   0.0185185
        k(   18) = (   0.0416667   0.2083333   0.4583333), wk =   0.0185185
        k(   19) = (   0.0416667   0.2916667   0.0416667), wk =   0.0185185
        k(   20) = (   0.0416667   0.2916667   0.1250000), wk =   0.0185185
        k(   21) = (   0.0416667   0.2916667   0.2083333), wk =   0.0185185
        k(   22) = (   0.0416667   0.2916667   0.2916667), wk =   0.0185185
        k(   23) = (   0.0416667   0.2916667   0.3750000), wk =   0.0185185
        k(   24) = (   0.0416667   0.2916667   0.4583333), wk =   0.0185185
        k(   25) = (   0.0416667   0.3750000   0.0416667), wk =   0.0185185
        k(   26) = (   0.0416667   0.3750000   0.1250000), wk =   0.0185185
        k(   27) = (   0.0416667   0.3750000   0.2083333), wk =   0.0185185
        k(   28) = (   0.0416667   0.3750000   0.2916667), wk =   0.0185185
        k(   29) = (   0.0416667   0.3750000   0.3750000), wk =   0.0185185
        k(   30) = (   0.0416667   0.3750000   0.4583333), wk =   0.0185185
        k(   31) = (   0.0416667   0.4583333   0.0416667), wk =   0.0185185
        k(   32) = (   0.0416667   0.4583333   0.1250000), wk =   0.0185185
        k(   33) = (   0.0416667   0.4583333   0.2083333), wk =   0.0185185
        k(   34) = (   0.0416667   0.4583333   0.2916667), wk =   0.0185185
        k(   35) = (   0.0416667   0.4583333   0.3750000), wk =   0.0185185
        k(   36) = (   0.0416667   0.4583333   0.4583333), wk =   0.0185185
        k(   37) = (   0.1250000   0.1250000   0.0416667), wk =   0.0092593
        k(   38) = (   0.1250000   0.1250000   0.1250000), wk =   0.0092593
        k(   39) = (   0.1250000   0.1250000   0.2083333), wk =   0.0092593
        k(   40) = (   0.1250000   0.1250000   0.2916667), wk =   0.0092593
        k(   41) = (   0.1250000   0.1250000   0.3750000), wk =   0.0092593
        k(   42) = (   0.1250000   0.1250000   0.4583333), wk =   0.0092593
        k(   43) = (   0.1250000   0.2083333   0.0416667), wk =   0.0185185
        k(   44) = (   0.1250000   0.2083333   0.1250000), wk =   0.0185185
        k(   45) = (   0.1250000   0.2083333   0.2083333), wk =   0.0185185
        k(   46) = (   0.1250000   0.2083333   0.2916667), wk =   0.0185185
        k(   47) = (   0.1250000   0.2083333   0.3750000), wk =   0.0185185
        k(   48) = (   0.1250000   0.2083333   0.4583333), wk =   0.0185185
        k(   49) = (   0.1250000   0.2916667   0.0416667), wk =   0.0185185
        k(   50) = (   0.1250000   0.2916667   0.1250000), wk =   0.0185185
        k(   51) = (   0.1250000   0.2916667   0.2083333), wk =   0.0185185
        k(   52) = (   0.1250000   0.2916667   0.2916667), wk =   0.0185185
        k(   53) = (   0.1250000   0.2916667   0.3750000), wk =   0.0185185
        k(   54) = (   0.1250000   0.2916667   0.4583333), wk =   0.0185185
        k(   55) = (   0.1250000   0.3750000   0.0416667), wk =   0.0185185
        k(   56) = (   0.1250000   0.3750000   0.1250000), wk =   0.0185185
        k(   57) = (   0.1250000   0.3750000   0.2083333), wk =   0.0185185
        k(   58) = (   0.1250000   0.3750000   0.2916667), wk =   0.0185185
        k(   59) = (   0.1250000   0.3750000   0.3750000), wk =   0.0185185
        k(   60) = (   0.1250000   0.3750000   0.4583333), wk =   0.0185185
        k(   61) = (   0.1250000   0.4583333   0.0416667), wk =   0.0185185
        k(   62) = (   0.1250000   0.4583333   0.1250000), wk =   0.0185185
        k(   63) = (   0.1250000   0.4583333   0.2083333), wk =   0.0185185
        k(   64) = (   0.1250000   0.4583333   0.2916667), wk =   0.0185185
        k(   65) = (   0.1250000   0.4583333   0.3750000), wk =   0.0185185
        k(   66) = (   0.1250000   0.4583333   0.4583333), wk =   0.0185185
        k(   67) = (   0.2083333   0.2083333   0.0416667), wk =   0.0092593
        k(   68) = (   0.2083333   0.2083333   0.1250000), wk =   0.0092593
        k(   69) = (   0.2083333   0.2083333   0.2083333), wk =   0.0092593
        k(   70) = (   0.2083333   0.2083333   0.2916667), wk =   0.0092593
        k(   71) = (   0.2083333   0.2083333   0.3750000), wk =   0.0092593
        k(   72) = (   0.2083333   0.2083333   0.4583333), wk =   0.0092593
        k(   73) = (   0.2083333   0.2916667   0.0416667), wk =   0.0185185
        k(   74) = (   0.2083333   0.2916667   0.1250000), wk =   0.0185185
        k(   75) = (   0.2083333   0.2916667   0.2083333), wk =   0.0185185
        k(   76) = (   0.2083333   0.2916667   0.2916667), wk =   0.0185185
        k(   77) = (   0.2083333   0.2916667   0.3750000), wk =   0.0185185
        k(   78) = (   0.2083333   0.2916667   0.4583333), wk =   0.0185185
        k(   79) = (   0.2083333   0.3750000   0.0416667), wk =   0.0185185
        k(   80) = (   0.2083333   0.3750000   0.1250000), wk =   0.0185185
        k(   81) = (   0.2083333   0.3750000   0.2083333), wk =   0.0185185
        k(   82) = (   0.2083333   0.3750000   0.2916667), wk =   0.0185185
        k(   83) = (   0.2083333   0.3750000   0.3750000), wk =   0.0185185
        k(   84) = (   0.2083333   0.3750000   0.4583333), wk =   0.0185185
        k(   85) = (   0.2083333   0.4583333   0.0416667), wk =   0.0185185
        k(   86) = (   0.2083333   0.4583333   0.1250000), wk =   0.0185185
        k(   87) = (   0.2083333   0.4583333   0.2083333), wk =   0.0185185
        k(   88) = (   0.2083333   0.4583333   0.2916667), wk =   0.0185185
        k(   89) = (   0.2083333   0.4583333   0.3750000), wk =   0.0185185
        k(   90) = (   0.2083333   0.4583333   0.4583333), wk =   0.0185185
        k(   91) = (   0.2916667   0.2916667   0.0416667), wk =   0.0092593
        k(   92) = (   0.2916667   0.2916667   0.1250000), wk =   0.0092593
        k(   93) = (   0.2916667   0.2916667   0.2083333), wk =   0.0092593
        k(   94) = (   0.2916667   0.2916667   0.2916667), wk =   0.0092593
        k(   95) = (   0.2916667   0.2916667   0.3750000), wk =   0.0092593
        k(   96) = (   0.2916667   0.2916667   0.4583333), wk =   0.0092593
        k(   97) = (   0.2916667   0.3750000   0.0416667), wk =   0.0185185
        k(   98) = (   0.2916667   0.3750000   0.1250000), wk =   0.0185185
        k(   99) = (   0.2916667   0.3750000   0.2083333), wk =   0.0185185
        k(  100) = (   0.2916667   0.3750000   0.2916667), wk =   0.0185185
        k(  101) = (   0.2916667   0.3750000   0.3750000), wk =   0.0185185
        k(  102) = (   0.2916667   0.3750000   0.4583333), wk =   0.0185185
        k(  103) = (   0.2916667   0.4583333   0.0416667), wk =   0.0185185
        k(  104) = (   0.2916667   0.4583333   0.1250000), wk =   0.0185185
        k(  105) = (   0.2916667   0.4583333   0.2083333), wk =   0.0185185
        k(  106) = (   0.2916667   0.4583333   0.2916667), wk =   0.0185185
        k(  107) = (   0.2916667   0.4583333   0.3750000), wk =   0.0185185
        k(  108) = (   0.2916667   0.4583333   0.4583333), wk =   0.0185185
        k(  109) = (   0.3750000   0.3750000   0.0416667), wk =   0.0092593
        k(  110) = (   0.3750000   0.3750000   0.1250000), wk =   0.0092593
        k(  111) = (   0.3750000   0.3750000   0.2083333), wk =   0.0092593
        k(  112) = (   0.3750000   0.3750000   0.2916667), wk =   0.0092593
        k(  113) = (   0.3750000   0.3750000   0.3750000), wk =   0.0092593
        k(  114) = (   0.3750000   0.3750000   0.4583333), wk =   0.0092593
        k(  115) = (   0.3750000   0.4583333   0.0416667), wk =   0.0185185
        k(  116) = (   0.3750000   0.4583333   0.1250000), wk =   0.0185185
        k(  117) = (   0.3750000   0.4583333   0.2083333), wk =   0.0185185
        k(  118) = (   0.3750000   0.4583333   0.2916667), wk =   0.0185185
        k(  119) = (   0.3750000   0.4583333   0.3750000), wk =   0.0185185
        k(  120) = (   0.3750000   0.4583333   0.4583333), wk =   0.0185185
        k(  121) = (   0.4583333   0.4583333   0.0416667), wk =   0.0092593
        k(  122) = (   0.4583333   0.4583333   0.1250000), wk =   0.0092593
        k(  123) = (   0.4583333   0.4583333   0.2083333), wk =   0.0092593
        k(  124) = (   0.4583333   0.4583333   0.2916667), wk =   0.0092593
        k(  125) = (   0.4583333   0.4583333   0.3750000), wk =   0.0092593
        k(  126) = (   0.4583333   0.4583333   0.4583333), wk =   0.0092593

     Dense  grid:     4441 G-vectors     FFT dimensions: (  24,  24,  24)

     Dynamical RAM for                 wfc:       0.51 MB

     Dynamical RAM for     wfc (w. buffer):       0.51 MB

     Dynamical RAM for           str. fact:       0.20 MB

     Dynamical RAM for           local pot:       0.00 MB

     Dynamical RAM for          nlocal pot:       0.52 MB

     Dynamical RAM for                qrad:       0.82 MB

     Dynamical RAM for          rho,v,vnew:       0.52 MB

     Dynamical RAM for           G-vectors:       0.29 MB

     Dynamical RAM for          h,s,v(r/c):       0.66 MB

     Dynamical RAM for          <psi|beta>:       0.06 MB

     Dynamical RAM for                 psi:       1.02 MB

     Dynamical RAM for                hpsi:       1.02 MB

     Dynamical RAM for      wfcinit/wfcrot:       1.51 MB

     Estimated static dynamical RAM per process >       3.66 MB

     Estimated max dynamical RAM per process >       6.41 MB

     The potential is recalculated from file :
     ./out/BaTiO3.save/charge-density

     Starting wfcs are   80 randomized atomic wfcs

     Band Structure Calculation
     Davidson diagonalization with overlap

     Computing kpt #:     1  of   126
     total cpu time spent up to now is        0.9 secs

     Computing kpt #:     2  of   126
     total cpu time spent up to now is        1.5 secs

     Computing kpt #:     3  of   126
     total cpu time spent up to now is        2.1 secs

     Computing kpt #:     4  of   126
     total cpu time spent up to now is        2.7 secs

     Computing kpt #:     5  of   126
     total cpu time spent up to now is        3.4 secs

     Computing kpt #:     6  of   126
     total cpu time spent up to now is        4.0 secs

     Computing kpt #:     7  of   126
     total cpu time spent up to now is        4.5 secs

     Computing kpt #:     8  of   126
     total cpu time spent up to now is        5.1 secs

     Computing kpt #:     9  of   126
     total cpu time spent up to now is        5.7 secs

     Computing kpt #:    10  of   126
     total cpu time spent up to now is        6.5 secs

     Computing kpt #:    11  of   126
     total cpu time spent up to now is        7.2 secs

     Computing kpt #:    12  of   126
     total cpu time spent up to now is        7.9 secs

     Computing kpt #:    13  of   126
     total cpu time spent up to now is        8.6 secs

     Computing kpt #:    14  of   126
     total cpu time spent up to now is        9.2 secs

     Computing kpt #:    15  of   126
     total cpu time spent up to now is        9.8 secs

     Computing kpt #:    16  of   126
     total cpu time spent up to now is       10.4 secs

     Computing kpt #:    17  of   126
     total cpu time spent up to now is       11.0 secs

     Computing kpt #:    18  of   126
     total cpu time spent up to now is       11.6 secs

     Computing kpt #:    19  of   126
     total cpu time spent up to now is       12.3 secs

     Computing kpt #:    20  of   126
     total cpu time spent up to now is       12.9 secs

     Computing kpt #:    21  of   126
     total cpu time spent up to now is       13.5 secs

     Computing kpt #:    22  of   126
     total cpu time spent up to now is       14.1 secs

     Computing kpt #:    23  of   126
     total cpu time spent up to now is       14.7 secs

     Computing kpt #:    24  of   126
     total cpu time spent up to now is       15.3 secs

     Computing kpt #:    25  of   126
     total cpu time spent up to now is       15.9 secs

     Computing kpt #:    26  of   126
     total cpu time spent up to now is       16.5 secs

     Computing kpt #:    27  of   126
     total cpu time spent up to now is       17.1 secs

     Computing kpt #:    28  of   126
     total cpu time spent up to now is       17.7 secs

     Computing kpt #:    29  of   126
     total cpu time spent up to now is       18.3 secs

     Computing kpt #:    30  of   126
     total cpu time spent up to now is       18.9 secs

     Computing kpt #:    31  of   126
     total cpu time spent up to now is       19.5 secs

     Computing kpt #:    32  of   126
     total cpu time spent up to now is       20.1 secs

     Computing kpt #:    33  of   126
     total cpu time spent up to now is       20.7 secs

     Computing kpt #:    34  of   126
     total cpu time spent up to now is       21.2 secs

     Computing kpt #:    35  of   126
     total cpu time spent up to now is       21.7 secs

     Computing kpt #:    36  of   126
     total cpu time spent up to now is       22.3 secs

     Computing kpt #:    37  of   126
     total cpu time spent up to now is       22.9 secs

     Computing kpt #:    38  of   126
     total cpu time spent up to now is       23.5 secs

     Computing kpt #:    39  of   126
     total cpu time spent up to now is       24.1 secs

     Computing kpt #:    40  of   126
     total cpu time spent up to now is       24.7 secs

     Computing kpt #:    41  of   126
     total cpu time spent up to now is       25.3 secs

     Computing kpt #:    42  of   126
     total cpu time spent up to now is       25.9 secs

     Computing kpt #:    43  of   126
     total cpu time spent up to now is       26.5 secs

     Computing kpt #:    44  of   126
     total cpu time spent up to now is       27.2 secs

     Computing kpt #:    45  of   126
     total cpu time spent up to now is       27.7 secs

     Computing kpt #:    46  of   126
     total cpu time spent up to now is       28.3 secs

     Computing kpt #:    47  of   126
     total cpu time spent up to now is       28.9 secs

     Computing kpt #:    48  of   126
     total cpu time spent up to now is       29.5 secs

     Computing kpt #:    49  of   126
     total cpu time spent up to now is       30.1 secs

     Computing kpt #:    50  of   126
     total cpu time spent up to now is       30.7 secs

     Computing kpt #:    51  of   126
     total cpu time spent up to now is       31.2 secs

     Computing kpt #:    52  of   126
     total cpu time spent up to now is       31.8 secs

     Computing kpt #:    53  of   126
     total cpu time spent up to now is       32.4 secs

     Computing kpt #:    54  of   126
     total cpu time spent up to now is       32.9 secs

     Computing kpt #:    55  of   126
     total cpu time spent up to now is       33.5 secs

     Computing kpt #:    56  of   126
     total cpu time spent up to now is       34.2 secs

     Computing kpt #:    57  of   126
     total cpu time spent up to now is       34.7 secs

     Computing kpt #:    58  of   126
     total cpu time spent up to now is       35.3 secs

     Computing kpt #:    59  of   126
     total cpu time spent up to now is       35.8 secs

     Computing kpt #:    60  of   126
     total cpu time spent up to now is       36.3 secs

     Computing kpt #:    61  of   126
     total cpu time spent up to now is       36.9 secs

     Computing kpt #:    62  of   126
     total cpu time spent up to now is       37.6 secs

     Computing kpt #:    63  of   126
     total cpu time spent up to now is       38.2 secs

     Computing kpt #:    64  of   126
     total cpu time spent up to now is       38.8 secs

     Computing kpt #:    65  of   126
     total cpu time spent up to now is       39.3 secs

     Computing kpt #:    66  of   126
     total cpu time spent up to now is       39.8 secs

     Computing kpt #:    67  of   126
     total cpu time spent up to now is       40.4 secs

     Computing kpt #:    68  of   126
     total cpu time spent up to now is       41.0 secs

     Computing kpt #:    69  of   126
     total cpu time spent up to now is       41.7 secs

     Computing kpt #:    70  of   126
     total cpu time spent up to now is       42.4 secs

     Computing kpt #:    71  of   126
     total cpu time spent up to now is       43.1 secs

     Computing kpt #:    72  of   126
     total cpu time spent up to now is       43.8 secs

     Computing kpt #:    73  of   126
     total cpu time spent up to now is       44.4 secs

     Computing kpt #:    74  of   126
     total cpu time spent up to now is       45.0 secs

     Computing kpt #:    75  of   126
     total cpu time spent up to now is       45.6 secs

     Computing kpt #:    76  of   126
     total cpu time spent up to now is       46.3 secs

     Computing kpt #:    77  of   126
     total cpu time spent up to now is       46.8 secs

     Computing kpt #:    78  of   126
     total cpu time spent up to now is       47.4 secs

     Computing kpt #:    79  of   126
     total cpu time spent up to now is       48.0 secs

     Computing kpt #:    80  of   126
     total cpu time spent up to now is       48.6 secs

     Computing kpt #:    81  of   126
     total cpu time spent up to now is       49.3 secs

     Computing kpt #:    82  of   126
     total cpu time spent up to now is       49.8 secs

     Computing kpt #:    83  of   126
     total cpu time spent up to now is       50.4 secs

     Computing kpt #:    84  of   126
     total cpu time spent up to now is       50.9 secs

     Computing kpt #:    85  of   126
     total cpu time spent up to now is       51.5 secs

     Computing kpt #:    86  of   126
     total cpu time spent up to now is       52.1 secs

     Computing kpt #:    87  of   126
     total cpu time spent up to now is       52.7 secs

     Computing kpt #:    88  of   126
     total cpu time spent up to now is       53.3 secs

     Computing kpt #:    89  of   126
     total cpu time spent up to now is       53.8 secs

     Computing kpt #:    90  of   126
     total cpu time spent up to now is       54.3 secs

     Computing kpt #:    91  of   126
     total cpu time spent up to now is       54.9 secs

     Computing kpt #:    92  of   126
     total cpu time spent up to now is       55.5 secs

     Computing kpt #:    93  of   126
     total cpu time spent up to now is       56.1 secs

     Computing kpt #:    94  of   126
     total cpu time spent up to now is       56.8 secs

     Computing kpt #:    95  of   126
     total cpu time spent up to now is       57.4 secs

     Computing kpt #:    96  of   126
     total cpu time spent up to now is       57.9 secs

     Computing kpt #:    97  of   126
     total cpu time spent up to now is       58.5 secs

     Computing kpt #:    98  of   126
     total cpu time spent up to now is       59.0 secs

     Computing kpt #:    99  of   126
     total cpu time spent up to now is       59.6 secs

     Computing kpt #:   100  of   126
     total cpu time spent up to now is       60.1 secs

     Computing kpt #:   101  of   126
     total cpu time spent up to now is       60.7 secs

     Computing kpt #:   102  of   126
     total cpu time spent up to now is       61.3 secs

     Computing kpt #:   103  of   126
     total cpu time spent up to now is       62.0 secs

     Computing kpt #:   104  of   126
     total cpu time spent up to now is       62.7 secs

     Computing kpt #:   105  of   126
     total cpu time spent up to now is       63.3 secs

     Computing kpt #:   106  of   126
     total cpu time spent up to now is       63.9 secs

     Computing kpt #:   107  of   126
     total cpu time spent up to now is       64.6 secs

     Computing kpt #:   108  of   126
     total cpu time spent up to now is       65.3 secs

     Computing kpt #:   109  of   126
     total cpu time spent up to now is       66.0 secs

     Computing kpt #:   110  of   126
     total cpu time spent up to now is       66.5 secs

     Computing kpt #:   111  of   126
     total cpu time spent up to now is       67.1 secs

     Computing kpt #:   112  of   126
     total cpu time spent up to now is       67.7 secs

     Computing kpt #:   113  of   126
     total cpu time spent up to now is       68.2 secs

     Computing kpt #:   114  of   126
     total cpu time spent up to now is       68.8 secs

     Computing kpt #:   115  of   126
     total cpu time spent up to now is       69.3 secs

     Computing kpt #:   116  of   126
     total cpu time spent up to now is       69.8 secs

     Computing kpt #:   117  of   126
     total cpu time spent up to now is       70.4 secs

     Computing kpt #:   118  of   126
     total cpu time spent up to now is       70.9 secs

     Computing kpt #:   119  of   126
     total cpu time spent up to now is       71.5 secs

     Computing kpt #:   120  of   126
     total cpu time spent up to now is       72.1 secs

     Computing kpt #:   121  of   126
     total cpu time spent up to now is       72.6 secs

     Computing kpt #:   122  of   126
     total cpu time spent up to now is       73.2 secs

     Computing kpt #:   123  of   126
     total cpu time spent up to now is       73.7 secs

     Computing kpt #:   124  of   126
     total cpu time spent up to now is       74.3 secs

     Computing kpt #:   125  of   126
     total cpu time spent up to now is       74.8 secs

     Computing kpt #:   126  of   126
     total cpu time spent up to now is       75.4 secs

     ethr =  4.17E-11,  avg # of iterations = 30.6

     total cpu time spent up to now is       75.4 secs

     End of band structure calculation

          k = 0.0417 0.0417 0.0414 (   553 PWs)   bands (ev):

   -16.7493 -15.9659 -15.9385   3.2836   3.3973   3.4306   5.7446   5.7465
     5.8708   6.6735   6.8597   6.8855  10.9868  11.0135  11.1111  11.1311
    11.2257  11.4898  14.3041  14.4790  16.1021  16.1552  16.2005  18.2110
    18.2297  19.3735  19.3996  19.4100  19.5828  19.6359  19.7550  25.3382
    25.5154  25.5539  30.4105  30.8112  30.9505  31.4938  31.5912  32.4065
    32.5580  32.6286  33.3719  33.8866  34.2150  34.2253  37.7572  38.2039
    38.2263  38.8523  40.5840  40.6442  41.1326  41.8147  41.8671  42.1607
    42.6948  43.1317  43.1823  43.5257

     occupation numbers 
     1.0000   1.0000   1.0000   1.0000   1.0000   1.0000   1.0000   1.0000
     1.0000   1.0000   1.0000   1.0000   0.0000   0.0000   0.0000   0.0000
     0.0000   0.0000   0.0000   0.0000   0.0000   0.0000   0.0000   0.0000
     0.0000   0.0000   0.0000   0.0000   0.0000   0.0000   0.0000   0.0000
     0.0000   0.0000   0.0000   0.0000   0.0000   0.0000   0.0000   0.0000
     0.0000   0.0000   0.0000   0.0000   0.0000   0.0000   0.0000   0.0000
     0.0000   0.0000   0.0000   0.0000   0.0000   0.0000   0.0000   0.0000
     0.0000   0.0000   0.0000   0.0000

          k = 0.0417 0.0417 0.1241 (   552 PWs)   bands (ev):

   -16.7009 -15.9619 -15.9456   3.1925   3.4178   3.4683   5.5175   5.6355
     5.8705   6.0442   6.6779   6.7475  11.1524  11.2847  11.3196  11.5840
    11.7460  11.9842  14.4049  14.4540  15.9032  16.3754  16.4567  18.3156
    18.3579  19.2178  19.3978  19.4151  19.5782  19.6746  19.6776  25.0212
    25.3440  25.3594  29.5328  29.9018  30.2096  31.3212  31.6270  32.5040
    32.8784  32.9195  33.3586  33.6249  34.1705  34.2065  37.9018  38.3784
    38.6745  38.7623  40.6024  40.7806  41.7062  42.1018  42.1083  42.6975
    42.7350  43.4373  43.5287  43.9098

     occupation numbers 
     1.0000   1.0000   1.0000   1.0000   1.0000   1.0000   1.0000   1.0000
     1.0000   1.0000   1.0000   1.0000   0.0000   0.0000   0.0000   0.0000
     0.0000   0.0000   0.0000   0.0000   0.0000   0.0000   0.0000   0.0000
     0.0000   0.0000   0.0000   0.0000   0.0000   0.0000   0.0000   0.0000
     0.0000   0.0000   0.0000   0.0000   0.0000   0.0000   0.0000   0.0000
     0.0000   0.0000   0.0000   0.0000   0.0000   0.0000   0.0000   0.0000
     0.0000   0.0000   0.0000   0.0000   0.0000   0.0000   0.0000   0.0000
     0.0000   0.0000   0.0000   0.0000

          k = 0.0417 0.0417 0.2068 (   549 PWs)   bands (ev):

   -16.6119 -15.9567 -15.9566   3.0693   3.3973   3.4678   5.2630   5.2977
     5.6427   5.7631   6.4143   6.4952  11.2301  11.8103  11.8632  12.2900
    12.4574  12.6771  14.6452  15.1984  15.4945  16.7014  16.7369  18.3946
    18.4567  19.2348  19.3413  19.4754  19.5650  19.6142  19.6145  24.2260
    25.0862  25.1018  28.4253  28.6697  29.1986  31.3664  31.4512  31.9884
    32.5715  33.0602  33.1349  33.9437  34.2371  34.3179  37.6258  39.1500
    39.2594  39.2680  40.7593  41.0862  41.7664  42.2981  42.6362  43.1263
    43.5143  43.7155  44.2038  44.4642

     occupation numbers 
     1.0000   1.0000   1.0000   1.0000   1.0000   1.0000   1.0000   1.0000
     1.0000   1.0000   1.0000   1.0000   0.0000   0.0000   0.0000   0.0000
     0.0000   0.0000   0.0000   0.0000   0.0000   0.0000   0.0000   0.0000
     0.0000   0.0000   0.0000   0.0000   0.0000   0.0000   0.0000   0.0000
     0.0000   0.0000   0.0000   0.0000   0.0000   0.0000   0.0000   0.0000
     0.0000   0.0000   0.0000   0.0000   0.0000   0.0000   0.0000   0.0000
     0.0000   0.0000   0.0000   0.0000   0.0000   0.0000   0.0000   0.0000
     0.0000   0.0000   0.0000   0.0000

          k = 0.0417 0.0417 0.2895 (   547 PWs)   bands (ev):

   -16.4973 -15.9841 -15.9524   2.9015   3.3657   3.3778   4.8506   5.0021
     5.3833   5.5393   6.2620   6.3365  11.4827  12.4928  12.6546  13.1474
    13.2688  13.3669  14.5650  15.0948  16.0613  17.0522  17.0733  18.1724
    18.5902  18.8028  19.3645  19.4227  19.5244  19.5402  20.3372  23.0273
    24.8725  24.9038  27.3533  27.6036  28.1572  31.0761  31.1027  31.5868
    32.1166  32.8743  33.1236  34.0889  34.4850  34.5159  37.5129  39.6531
    39.7678  40.2704  41.0923  41.4835  41.9284  42.3959  42.8726  43.3550
    43.4832  43.5795  45.0430  45.0445

     occupation numbers 
     1.0000   1.0000   1.0000   1.0000   1.0000   1.0000   1.0000   1.0000
     1.0000   1.0000   1.0000   1.0000   0.0000   0.0000   0.0000   0.0000
     0.0000   0.0000   0.0000   0.0000   0.0000   0.0000   0.0000   0.0000
     0.0000   0.0000   0.0000   0.0000   0.0000   0.0000   0.0000   0.0000
     0.0000   0.0000   0.0000   0.0000   0.0000   0.0000   0.0000   0.0000
     0.0000   0.0000   0.0000   0.0000   0.0000   0.0000   0.0000   0.0000
     0.0000   0.0000   0.0000   0.0000   0.0000   0.0000   0.0000   0.0000
     0.0000   0.0000   0.0000   0.0000

          k = 0.0417 0.0417 0.3722 (   554 PWs)   bands (ev):

   -16.3768 -16.0317 -15.9496   2.7021   3.2109   3.2507   4.3875   4.7245
     5.2894   5.3425   6.1414   6.1711  11.6380  13.1801  13.2911  13.5449
    13.8268  14.0392  14.4330  14.7372  16.3681  17.0363  17.1555  18.1608
    18.2982  18.6753  19.1962  19.2765  19.4135  19.4586  21.4546  21.6821
    24.7934  24.8194  26.2993  26.5260  26.9926  30.2795  30.6677  31.6834
    31.8696  32.6368  32.9810  34.1834  34.5487  34.8386  37.4968  40.0152
    40.1589  40.8860  41.4594  41.7529  42.1538  42.4200  42.8952  43.0876
    43.1093  43.6217  45.8092  45.8697

     occupation numbers 
     1.0000   1.0000   1.0000   1.0000   1.0000   1.0000   1.0000   1.0000
     1.0000   1.0000   1.0000   1.0000   0.0000   0.0000   0.0000   0.0000
     0.0000   0.0000   0.0000   0.0000   0.0000   0.0000   0.0000   0.0000
     0.0000   0.0000   0.0000   0.0000   0.0000   0.0000   0.0000   0.0000
     0.0000   0.0000   0.0000   0.0000   0.0000   0.0000   0.0000   0.0000
     0.0000   0.0000   0.0000   0.0000   0.0000   0.0000   0.0000   0.0000
     0.0000   0.0000   0.0000   0.0000   0.0000   0.0000   0.0000   0.0000
     0.0000   0.0000   0.0000   0.0000

          k = 0.0417 0.0417 0.4549 (   566 PWs)   bands (ev):

   -16.2803 -16.0875 -15.9481   2.5167   3.0847   3.1099   4.1708   4.3838
     5.0767   5.2151   6.0014   6.1815  11.5440  13.5168  13.6945  13.7501
    14.0451  14.2002  14.3415  14.5188  16.2850  16.8671  16.9975  17.9268
    18.4492  18.6712  18.9993  19.0386  19.3447  19.3495  20.4016  22.5993
    24.8820  24.9741  25.2605  25.7723  25.9963  29.8281  30.3951  31.5731
    31.7469  32.4352  32.8856  34.0620  34.5609  35.0385  37.5035  40.1625
    40.3959  40.7234  41.7833  42.0804  42.4011  42.6265  42.6470  42.9236
    43.3441  43.6075  45.5046  46.2857

     occupation numbers 
     1.0000   1.0000   1.0000   1.0000   1.0000   1.0000   1.0000   1.0000
     1.0000   1.0000   1.0000   1.0000   0.0000   0.0000   0.0000   0.0000
     0.0000   0.0000   0.0000   0.0000   0.0000   0.0000   0.0000   0.0000
     0.0000   0.0000   0.0000   0.0000   0.0000   0.0000   0.0000   0.0000
     0.0000   0.0000   0.0000   0.0000   0.0000   0.0000   0.0000   0.0000
     0.0000   0.0000   0.0000   0.0000   0.0000   0.0000   0.0000   0.0000
     0.0000   0.0000   0.0000   0.0000   0.0000   0.0000   0.0000   0.0000
     0.0000   0.0000   0.0000   0.0000

          k = 0.0417 0.1250 0.0414 (   554 PWs)   bands (ev):

   -16.6999 -15.9695 -15.9388   3.2152   3.4149   3.4772   5.4858   5.5990
     5.8385   5.9884   6.6307   6.7298  11.1530  11.2561  11.3323  11.5567
    11.7594  11.9573  14.3214  14.4295  15.9303  16.3520  16.4251  18.3177
    18.3722  19.2155  19.3312  19.4107  19.5799  19.6278  19.6751  25.1885
    25.2427  25.3557  29.4280  29.8765  30.3384  31.2851  31.5564  32.6013
    32.8245  32.9843  33.3176  33.6363  34.1204  34.1615  37.8372  38.4457
    38.6007  38.6924  40.6012  40.7513  41.6722  41.8952  42.2766  42.6707
    42.8972  43.1342  43.5640  44.1067

     occupation numbers 
     1.0000   1.0000   1.0000   1.0000   1.0000   1.0000   1.0000   1.0000
     1.0000   1.0000   1.0000   1.0000   0.0000   0.0000   0.0000   0.0000
     0.0000   0.0000   0.0000   0.0000   0.0000   0.0000   0.0000   0.0000
     0.0000   0.0000   0.0000   0.0000   0.0000   0.0000   0.0000   0.0000
     0.0000   0.0000   0.0000   0.0000   0.0000   0.0000   0.0000   0.0000
     0.0000   0.0000   0.0000   0.0000   0.0000   0.0000   0.0000   0.0000
     0.0000   0.0000   0.0000   0.0000   0.0000   0.0000   0.0000   0.0000
     0.0000   0.0000   0.0000   0.0000

          k = 0.0417 0.1250 0.1241 (   552 PWs)   bands (ev):

   -16.6549 -15.9665 -15.9436   3.0341   3.4569   3.5672   5.2109   5.5030
     5.6353   5.9504   6.5002   6.6670  11.2671  11.4595  11.5461  11.8606
    12.1757  12.3793  14.4638  14.7400  15.9989  16.3004  16.5203  18.4303
    18.4656  19.1051  19.3420  19.4549  19.5036  19.6144  19.6939  24.8660
    25.1179  25.2080  28.6273  29.3630  29.8372  30.9879  31.1949  32.5566
    32.8766  33.0042  33.1290  34.0391  34.1476  34.5532  37.7935  38.4198
    38.5595  39.0751  40.6467  41.0428  41.6178  42.1048  42.4029  42.7579
    43.4331  43.6681  43.8560  44.6306

     occupation numbers 
     1.0000   1.0000   1.0000   1.0000   1.0000   1.0000   1.0000   1.0000
     1.0000   1.0000   1.0000   1.0000   0.0000   0.0000   0.0000   0.0000
     0.0000   0.0000   0.0000   0.0000   0.0000   0.0000   0.0000   0.0000
     0.0000   0.0000   0.0000   0.0000   0.0000   0.0000   0.0000   0.0000
     0.0000   0.0000   0.0000   0.0000   0.0000   0.0000   0.0000   0.0000
     0.0000   0.0000   0.0000   0.0000   0.0000   0.0000   0.0000   0.0000
     0.0000   0.0000   0.0000   0.0000   0.0000   0.0000   0.0000   0.0000
     0.0000   0.0000   0.0000   0.0000

          k = 0.0417 0.1250 0.2068 (   546 PWs)   bands (ev):

   -16.5724 -15.9644 -15.9536   2.8773   3.4786   3.6405   4.8129   5.2810
     5.4731   5.9399   6.3519   6.5514  11.5922  11.7963  12.0912  12.4756
    12.8706  13.0777  14.7795  15.3537  15.7740  16.6012  16.8566  18.4188
    18.5347  18.9791  19.1879  19.4806  19.5952  19.6490  19.7756  24.1334
    24.8628  25.0085  27.8245  28.4160  28.9870  30.8985  30.9706  31.9420
    32.3601  32.9318  33.4072  34.0859  34.5897  34.8713  37.6081  38.5989
    39.0698  39.6400  40.8359  41.2358  41.6577  42.2501  42.8527  43.2491
    43.8436  44.0785  44.6778  44.9156

     occupation numbers 
     1.0000   1.0000   1.0000   1.0000   1.0000   1.0000   1.0000   1.0000
     1.0000   1.0000   1.0000   1.0000   0.0000   0.0000   0.0000   0.0000
     0.0000   0.0000   0.0000   0.0000   0.0000   0.0000   0.0000   0.0000
     0.0000   0.0000   0.0000   0.0000   0.0000   0.0000   0.0000   0.0000
     0.0000   0.0000   0.0000   0.0000   0.0000   0.0000   0.0000   0.0000
     0.0000   0.0000   0.0000   0.0000   0.0000   0.0000   0.0000   0.0000
     0.0000   0.0000   0.0000   0.0000   0.0000   0.0000   0.0000   0.0000
     0.0000   0.0000   0.0000   0.0000

          k = 0.0417 0.1250 0.2895 (   546 PWs)   bands (ev):

   -16.4666 -15.9805 -15.9609   2.6813   3.4150   3.5871   4.4499   4.9620
     5.3587   5.8558   6.2075   6.3038  11.9339  12.2742  12.7577  13.1940
    13.4505  13.7976  14.8930  15.3537  15.9652  16.9274  17.1281  18.2041
    18.5965  18.6602  19.1732  19.3939  19.4918  19.5693  20.4986  22.9710
    24.6864  24.7697  26.8367  27.3941  28.0366  30.7020  30.8572  31.3091
    31.6592  32.7047  33.4969  34.0806  35.0137  35.2304  37.6673  38.6808
    39.8532  40.0782  41.1112  41.4213  41.9481  42.2894  43.1582  43.4246
    43.8307  43.9579  44.9752  45.2555

     occupation numbers 
     1.0000   1.0000   1.0000   1.0000   1.0000   1.0000   1.0000   1.0000
     1.0000   1.0000   1.0000   1.0000   0.0000   0.0000   0.0000   0.0000
     0.0000   0.0000   0.0000   0.0000   0.0000   0.0000   0.0000   0.0000
     0.0000   0.0000   0.0000   0.0000   0.0000   0.0000   0.0000   0.0000
     0.0000   0.0000   0.0000   0.0000   0.0000   0.0000   0.0000   0.0000
     0.0000   0.0000   0.0000   0.0000   0.0000   0.0000   0.0000   0.0000
     0.0000   0.0000   0.0000   0.0000   0.0000   0.0000   0.0000   0.0000
     0.0000   0.0000   0.0000   0.0000

          k = 0.0417 0.1250 0.3722 (   553 PWs)   bands (ev):

   -16.3562 -16.0235 -15.9603   2.5213   3.2895   3.4683   4.0240   4.7064
     5.1963   5.7065   5.9974   6.1169  12.0045  12.9265  13.4213  13.7123
    13.9087  14.4099  14.7877  15.0349  16.1954  16.9596  17.1995  18.0295
    18.5219  18.6173  19.1168  19.2131  19.3314  19.4840  21.4562  21.7239
    24.5696  24.7167  25.8484  26.3515  27.0613  30.2427  30.5063  31.0532
    31.2155  32.4759  33.4204  34.0316  35.2839  35.4290  37.7578  38.8585
    40.3181  40.5613  41.3637  41.6225  41.7870  42.3339  43.0703  43.4645
    43.8557  44.0125  45.4583  45.6099

     occupation numbers 
     1.0000   1.0000   1.0000   1.0000   1.0000   1.0000   1.0000   1.0000
     1.0000   1.0000   1.0000   1.0000   0.0000   0.0000   0.0000   0.0000
     0.0000   0.0000   0.0000   0.0000   0.0000   0.0000   0.0000   0.0000
     0.0000   0.0000   0.0000   0.0000   0.0000   0.0000   0.0000   0.0000
     0.0000   0.0000   0.0000   0.0000   0.0000   0.0000   0.0000   0.0000
     0.0000   0.0000   0.0000   0.0000   0.0000   0.0000   0.0000   0.0000
     0.0000   0.0000   0.0000   0.0000   0.0000   0.0000   0.0000   0.0000
     0.0000   0.0000   0.0000   0.0000

          k = 0.0417 0.1250 0.4549 (   558 PWs)   bands (ev):

   -16.2697 -16.0716 -15.9597   2.4495   3.2505   3.4061   3.7972   4.4565
     5.1090   5.6400   5.8177   6.0520  12.1362  13.4369  13.7980  13.8694
    14.3404  14.6620  14.7968  14.8789  16.1413  16.7046  17.0689  18.0884
    18.6195  18.7868  18.9892  19.0733  19.1842  19.4739  20.4961  22.6246
    24.3669  24.9332  25.2394  25.5561  26.1861  29.8447  30.2679  30.9907
    31.0611  32.3934  33.4519  33.9522  35.3331  35.5794  37.7866  39.0794
    40.3409  40.6245  41.4874  41.8110  42.1322  42.5447  42.8074  43.5927
    43.8361  44.0495  45.1800  45.7602

     occupation numbers 
     1.0000   1.0000   1.0000   1.0000   1.0000   1.0000   1.0000   1.0000
     1.0000   1.0000   1.0000   1.0000   0.0000   0.0000   0.0000   0.0000
     0.0000   0.0000   0.0000   0.0000   0.0000   0.0000   0.0000   0.0000
     0.0000   0.0000   0.0000   0.0000   0.0000   0.0000   0.0000   0.0000
     0.0000   0.0000   0.0000   0.0000   0.0000   0.0000   0.0000   0.0000
     0.0000   0.0000   0.0000   0.0000   0.0000   0.0000   0.0000   0.0000
     0.0000   0.0000   0.0000   0.0000   0.0000   0.0000   0.0000   0.0000
     0.0000   0.0000   0.0000   0.0000

          k = 0.0417 0.2083 0.0414 (   550 PWs)   bands (ev):

   -16.6087 -15.9786 -15.9345   3.0571   3.3911   3.4462   5.2019   5.3157
     5.6077   5.7148   6.4043   6.4920  11.2497  11.7729  11.9240  12.3454
    12.5164  12.6088  14.5164  15.1944  15.5096  16.7230  16.7501  18.4440
    18.4700  19.2139  19.3349  19.4378  19.5540  19.6075  19.6639  24.3899
    24.9953  25.1070  28.3329  28.6766  29.3689  31.3092  31.4631  32.1168
    32.5016  33.0389  33.2345  33.9413  34.1569  34.2317  37.4882  38.9649
    39.1662  39.3577  40.7308  41.0313  41.7244  42.2415  42.6843  43.0447
    43.1810  43.9295  44.2641  44.6922

     occupation numbers 
     1.0000   1.0000   1.0000   1.0000   1.0000   1.0000   1.0000   1.0000
     1.0000   1.0000   1.0000   1.0000   0.0000   0.0000   0.0000   0.0000
     0.0000   0.0000   0.0000   0.0000   0.0000   0.0000   0.0000   0.0000
     0.0000   0.0000   0.0000   0.0000   0.0000   0.0000   0.0000   0.0000
     0.0000   0.0000   0.0000   0.0000   0.0000   0.0000   0.0000   0.0000
     0.0000   0.0000   0.0000   0.0000   0.0000   0.0000   0.0000   0.0000
     0.0000   0.0000   0.0000   0.0000   0.0000   0.0000   0.0000   0.0000
     0.0000   0.0000   0.0000   0.0000

          k = 0.0417 0.2083 0.1241 (   548 PWs)   bands (ev):

   -16.5704 -15.9783 -15.9401   2.8569   3.4571   3.5705   4.8002   5.2504
     5.4584   5.9230   6.3919   6.4889  11.5906  11.7534  12.1131  12.5210
    12.8439  13.0788  14.6606  15.2950  15.7730  16.6234  16.8537  18.4474
    18.5226  18.9667  19.1905  19.4600  19.5678  19.6654  19.7906  24.2664
    24.7334  24.9869  27.7330  28.4545  29.0624  30.8526  30.9612  31.9182
    32.4201  32.9514  33.4018  34.0773  34.5714  34.8006  37.5213  38.4310
    39.1722  39.5706  40.7764  41.2487  41.6530  42.2381  42.8161  43.2568
    43.5273  44.3352  44.7465  45.0706

     occupation numbers 
     1.0000   1.0000   1.0000   1.0000   1.0000   1.0000   1.0000   1.0000
     1.0000   1.0000   1.0000   1.0000   0.0000   0.0000   0.0000   0.0000
     0.0000   0.0000   0.0000   0.0000   0.0000   0.0000   0.0000   0.0000
     0.0000   0.0000   0.0000   0.0000   0.0000   0.0000   0.0000   0.0000
     0.0000   0.0000   0.0000   0.0000   0.0000   0.0000   0.0000   0.0000
     0.0000   0.0000   0.0000   0.0000   0.0000   0.0000   0.0000   0.0000
     0.0000   0.0000   0.0000   0.0000   0.0000   0.0000   0.0000   0.0000
     0.0000   0.0000   0.0000   0.0000

          k = 0.0417 0.2083 0.2068 (   547 PWs)   bands (ev):

   -16.5006 -15.9803 -15.9502   2.6386   3.4794   3.6545   4.4319   5.1570
     5.2132   5.9466   6.1976   6.5388  11.7470  12.3169  12.4015  12.8899
    13.1880  13.6697  15.0660  15.5751  15.9950  16.5267  16.9150  18.3385
    18.5483  18.7013  18.9676  19.4543  19.5072  19.6499  20.1952  23.7932
    24.4182  24.7627  26.9887  27.8524  28.3632  30.3786  30.6216  31.3266
    32.3693  32.7743  33.5927  34.0351  35.1306  35.4093  37.2509  38.6734
    38.9687  40.1719  40.7987  41.2822  41.4039  42.5652  43.1345  43.6935
    44.0568  44.2534  44.7289  45.0876

     occupation numbers 
     1.0000   1.0000   1.0000   1.0000   1.0000   1.0000   1.0000   1.0000
     1.0000   1.0000   1.0000   1.0000   0.0000   0.0000   0.0000   0.0000
     0.0000   0.0000   0.0000   0.0000   0.0000   0.0000   0.0000   0.0000
     0.0000   0.0000   0.0000   0.0000   0.0000   0.0000   0.0000   0.0000
     0.0000   0.0000   0.0000   0.0000   0.0000   0.0000   0.0000   0.0000
     0.0000   0.0000   0.0000   0.0000   0.0000   0.0000   0.0000   0.0000
     0.0000   0.0000   0.0000   0.0000   0.0000   0.0000   0.0000   0.0000
     0.0000   0.0000   0.0000   0.0000

          k = 0.0417 0.2083 0.2895 (   549 PWs)   bands (ev):

   -16.4118 -15.9879 -15.9665   2.4655   3.4580   3.6300   3.9825   4.9330
     5.0845   5.8534   5.9720   6.4761  12.1174  12.5502  13.0001  13.5227
    13.6093  14.3682  15.1855  15.7802  16.0639  16.7655  17.0392  18.1629
    18.4877  18.5204  18.8752  19.3705  19.4640  19.6100  20.8528  22.8200
    24.1247  24.5510  26.3032  26.9029  27.5650  30.0227  30.3651  30.8328
    31.7127  32.6754  33.6140  33.9782  35.5907  35.8587  37.2792  38.6387
    39.3341  40.5067  40.8398  41.4418  41.7081  42.5322  43.2314  43.5125
    43.9053  44.2775  44.9322  45.0884

     occupation numbers 
     1.0000   1.0000   1.0000   1.0000   1.0000   1.0000   1.0000   1.0000
     1.0000   1.0000   1.0000   1.0000   0.0000   0.0000   0.0000   0.0000
     0.0000   0.0000   0.0000   0.0000   0.0000   0.0000   0.0000   0.0000
     0.0000   0.0000   0.0000   0.0000   0.0000   0.0000   0.0000   0.0000
     0.0000   0.0000   0.0000   0.0000   0.0000   0.0000   0.0000   0.0000
     0.0000   0.0000   0.0000   0.0000   0.0000   0.0000   0.0000   0.0000
     0.0000   0.0000   0.0000   0.0000   0.0000   0.0000   0.0000   0.0000
     0.0000   0.0000   0.0000   0.0000

          k = 0.0417 0.2083 0.3722 (   557 PWs)   bands (ev):

   -16.3219 -16.0137 -15.9773   2.2700   3.3814   3.5447   3.6284   4.6948
     5.0049   5.6449   5.8564   6.3115  12.5198  12.6858  13.5585  13.8252
    14.1808  14.7742  15.1335  15.5651  16.0119  16.8560  17.1564  17.8476
    18.4487  18.4667  19.0034  19.1108  19.3128  19.4730  21.5400  21.8158
    23.8818  24.4728  25.5944  25.9749  26.7939  29.6266  30.1987  30.5068
    30.9512  32.5271  33.6500  33.8748  35.8733  36.2440  37.5184  38.4399
    39.8696  40.5878  40.9870  41.5096  41.8507  42.2727  43.0202  43.3050
    43.9843  44.1699  44.7126  45.5007

     occupation numbers 
     1.0000   1.0000   1.0000   1.0000   1.0000   1.0000   1.0000   1.0000
     1.0000   1.0000   1.0000   1.0000   0.0000   0.0000   0.0000   0.0000
     0.0000   0.0000   0.0000   0.0000   0.0000   0.0000   0.0000   0.0000
     0.0000   0.0000   0.0000   0.0000   0.0000   0.0000   0.0000   0.0000
     0.0000   0.0000   0.0000   0.0000   0.0000   0.0000   0.0000   0.0000
     0.0000   0.0000   0.0000   0.0000   0.0000   0.0000   0.0000   0.0000
     0.0000   0.0000   0.0000   0.0000   0.0000   0.0000   0.0000   0.0000
     0.0000   0.0000   0.0000   0.0000

          k = 0.0417 0.2083 0.4549 (   557 PWs)   bands (ev):

   -16.2558 -16.0447 -15.9796   2.2283   3.3293   3.3772   3.5646   4.5846
     5.0553   5.4888   5.8031   6.2443  12.5063  13.3169  13.8174  14.0726
    14.6385  15.2649  15.3690  15.4794  15.8778  16.6751  17.1535  18.0681
    18.4226  18.5196  18.9142  19.1270  19.4361  19.5350  20.5766  22.7140
    23.5435  24.6722  25.2207  25.3225  26.1001  29.3803  30.1008  30.3671
    30.5434  32.4530  33.6013  33.8431  35.9718  36.4810  37.8022  38.2805
    40.2757  40.6413  40.9704  41.4560  42.1153  42.5608  42.6789  43.1926
    43.6653  44.0839  44.3986  45.8178

     occupation numbers 
     1.0000   1.0000   1.0000   1.0000   1.0000   1.0000   1.0000   1.0000
     1.0000   1.0000   1.0000   1.0000   0.0000   0.0000   0.0000   0.0000
     0.0000   0.0000   0.0000   0.0000   0.0000   0.0000   0.0000   0.0000
     0.0000   0.0000   0.0000   0.0000   0.0000   0.0000   0.0000   0.0000
     0.0000   0.0000   0.0000   0.0000   0.0000   0.0000   0.0000   0.0000
     0.0000   0.0000   0.0000   0.0000   0.0000   0.0000   0.0000   0.0000
     0.0000   0.0000   0.0000   0.0000   0.0000   0.0000   0.0000   0.0000
     0.0000   0.0000   0.0000   0.0000

          k = 0.0417 0.2917 0.0414 (   548 PWs)   bands (ev):

   -16.4908 -16.0041 -15.9312   2.8464   3.3129   3.3898   4.8190   4.9740
     5.4111   5.5338   6.2241   6.2999  11.4063  12.4616  12.7176  13.1566
    13.2384  13.4164  14.4651  15.0768  16.1248  17.0592  17.1204  18.2568
    18.5837  18.8381  19.2708  19.4356  19.4779  19.5223  20.4499  23.2721
    24.7517  24.8908  27.2320  27.5515  28.4266  31.1669  31.2603  31.5015
    31.8936  32.8637  33.1984  34.0135  34.3902  34.5303  37.3284  39.4609
    39.6772  40.2515  41.0485  41.4285  41.8646  42.3984  42.9302  43.2157
    43.3068  43.6638  44.9292  45.3602

     occupation numbers 
     1.0000   1.0000   1.0000   1.0000   1.0000   1.0000   1.0000   1.0000
     1.0000   1.0000   1.0000   1.0000   0.0000   0.0000   0.0000   0.0000
     0.0000   0.0000   0.0000   0.0000   0.0000   0.0000   0.0000   0.0000
     0.0000   0.0000   0.0000   0.0000   0.0000   0.0000   0.0000   0.0000
     0.0000   0.0000   0.0000   0.0000   0.0000   0.0000   0.0000   0.0000
     0.0000   0.0000   0.0000   0.0000   0.0000   0.0000   0.0000   0.0000
     0.0000   0.0000   0.0000   0.0000   0.0000   0.0000   0.0000   0.0000
     0.0000   0.0000   0.0000   0.0000

          k = 0.0417 0.2917 0.1241 (   546 PWs)   bands (ev):

   -16.4611 -16.0041 -15.9364   2.6581   3.4202   3.5577   4.4313   4.9423
     5.3321   5.8330   6.1625   6.3447  11.8765  12.2860  12.8328  13.2728
    13.3794  13.8769  14.8095  15.3227  16.0583  16.9914  17.1759  18.2738
    18.5885  18.6941  19.1319  19.3867  19.4802  19.5567  20.5813  23.1509
    24.5804  24.7641  26.7570  27.3648  28.1876  30.7871  30.8287  31.2707
    31.6345  32.7558  33.5551  34.0254  35.0121  35.1289  37.5089  38.5271
    39.8650  39.9867  41.0020  41.4730  41.9625  42.3394  43.1569  43.4042
    43.6792  43.9169  45.0480  45.4178

     occupation numbers 
     1.0000   1.0000   1.0000   1.0000   1.0000   1.0000   1.0000   1.0000
     1.0000   1.0000   1.0000   1.0000   0.0000   0.0000   0.0000   0.0000
     0.0000   0.0000   0.0000   0.0000   0.0000   0.0000   0.0000   0.0000
     0.0000   0.0000   0.0000   0.0000   0.0000   0.0000   0.0000   0.0000
     0.0000   0.0000   0.0000   0.0000   0.0000   0.0000   0.0000   0.0000
     0.0000   0.0000   0.0000   0.0000   0.0000   0.0000   0.0000   0.0000
     0.0000   0.0000   0.0000   0.0000   0.0000   0.0000   0.0000   0.0000
     0.0000   0.0000   0.0000   0.0000

          k = 0.0417 0.2917 0.2068 (   552 PWs)   bands (ev):

   -16.4086 -16.0060 -15.9490   2.4060   3.4364   3.5851   3.9611   4.8970
     5.0845   5.8282   5.9615   6.4682  12.0966  12.4269  12.9884  13.5212
    13.5532  14.3069  15.1307  15.7367  16.0491  16.7955  17.0420  18.2051
    18.4689  18.4989  18.8367  19.3627  19.4446  19.5497  20.8799  22.9473
    23.9914  24.5230  26.2480  26.8554  27.6252  30.0127  30.3515  30.7851
    31.7403  32.6878  33.6321  33.9365  35.5701  35.7959  37.2332  38.4607
    39.3713  40.4574  40.7692  41.4625  41.7259  42.5481  43.2425  43.5318
    43.8070  44.1705  44.8973  45.1020

     occupation numbers 
     1.0000   1.0000   1.0000   1.0000   1.0000   1.0000   1.0000   1.0000
     1.0000   1.0000   1.0000   1.0000   0.0000   0.0000   0.0000   0.0000
     0.0000   0.0000   0.0000   0.0000   0.0000   0.0000   0.0000   0.0000
     0.0000   0.0000   0.0000   0.0000   0.0000   0.0000   0.0000   0.0000
     0.0000   0.0000   0.0000   0.0000   0.0000   0.0000   0.0000   0.0000
     0.0000   0.0000   0.0000   0.0000   0.0000   0.0000   0.0000   0.0000
     0.0000   0.0000   0.0000   0.0000   0.0000   0.0000   0.0000   0.0000
     0.0000   0.0000   0.0000   0.0000

          k = 0.0417 0.2917 0.2895 (   557 PWs)   bands (ev):

   -16.3448 -16.0120 -15.9613   2.1671   3.4331   3.5437   3.6382   4.7527
     4.9097   5.7540   5.7941   6.6057  12.2501  12.7580  13.2177  13.6120
    14.1167  14.6970  15.3989  16.1271  16.2809  16.8103  16.9033  17.9711
    18.1784  18.3069  18.7975  19.2246  19.3922  19.4534  21.3747  22.4619
    23.4529  24.2715  25.7984  26.1822  26.9385  29.3939  30.0626  30.3423
    31.4210  32.7140  33.6724  33.8586  35.9983  36.3225  37.1239  38.5977
    39.1318  40.4063  41.1067  41.3871  41.9260  42.5691  42.7232  43.2112
    43.3536  44.3762  44.6431  45.0067

     occupation numbers 
     1.0000   1.0000   1.0000   1.0000   1.0000   1.0000   1.0000   1.0000
     1.0000   1.0000   1.0000   1.0000   0.0000   0.0000   0.0000   0.0000
     0.0000   0.0000   0.0000   0.0000   0.0000   0.0000   0.0000   0.0000
     0.0000   0.0000   0.0000   0.0000   0.0000   0.0000   0.0000   0.0000
     0.0000   0.0000   0.0000   0.0000   0.0000   0.0000   0.0000   0.0000
     0.0000   0.0000   0.0000   0.0000   0.0000   0.0000   0.0000   0.0000
     0.0000   0.0000   0.0000   0.0000   0.0000   0.0000   0.0000   0.0000
     0.0000   0.0000   0.0000   0.0000

          k = 0.0417 0.2917 0.3722 (   559 PWs)   bands (ev):

   -16.2856 -16.0184 -15.9755   2.0468   3.2146   3.4775   3.6239   4.5705
     4.9477   5.4656   5.7278   6.6624  12.6466  13.1043  13.5937  13.8461
    14.7498  15.2440  15.5697  16.0787  16.2006  16.9617  17.0771  17.6804
    18.0286  18.1570  19.0046  19.1911  19.2913  19.3833  21.4748  22.0744
    23.1750  24.1602  25.4285  25.4794  26.3178  28.9414  29.8054  30.1460
    30.8095  32.7743  33.6658  33.7868  36.2896  36.7242  37.3300  38.5445
    39.3097  40.3761  41.2163  41.4872  41.8784  42.2542  42.4669  42.7427
    43.1387  43.8188  44.3979  45.5609

     occupation numbers 
     1.0000   1.0000   1.0000   1.0000   1.0000   1.0000   1.0000   1.0000
     1.0000   1.0000   1.0000   1.0000   0.0000   0.0000   0.0000   0.0000
     0.0000   0.0000   0.0000   0.0000   0.0000   0.0000   0.0000   0.0000
     0.0000   0.0000   0.0000   0.0000   0.0000   0.0000   0.0000   0.0000
     0.0000   0.0000   0.0000   0.0000   0.0000   0.0000   0.0000   0.0000
     0.0000   0.0000   0.0000   0.0000   0.0000   0.0000   0.0000   0.0000
     0.0000   0.0000   0.0000   0.0000   0.0000   0.0000   0.0000   0.0000
     0.0000   0.0000   0.0000   0.0000

          k = 0.0417 0.2917 0.4549 (   559 PWs)   bands (ev):

   -16.2492 -16.0183 -15.9905   1.9818   3.0017   3.5083   3.6451   4.4980
     5.0907   5.3020   5.6076   6.6915  13.0855  13.4248  13.5890  14.2341
    15.2156  15.5511  15.7451  15.8837  16.1984  16.8100  17.1751  17.6509
    18.0435  18.2721  18.8111  19.0627  19.3224  19.8381  20.5554  22.3402
    23.2289  24.2013  24.9297  25.2798  25.7752  28.6817  29.6461  30.0075
    30.4094  32.8001  33.6716  33.7835  36.4129  36.9391  37.5038  38.5288
    39.7344  40.5008  40.9526  41.2564  41.5419  42.0618  42.4439  42.6262
    43.2042  43.4126  44.3717  45.9340

     occupation numbers 
     1.0000   1.0000   1.0000   1.0000   1.0000   1.0000   1.0000   1.0000
     1.0000   1.0000   1.0000   1.0000   0.0000   0.0000   0.0000   0.0000
     0.0000   0.0000   0.0000   0.0000   0.0000   0.0000   0.0000   0.0000
     0.0000   0.0000   0.0000   0.0000   0.0000   0.0000   0.0000   0.0000
     0.0000   0.0000   0.0000   0.0000   0.0000   0.0000   0.0000   0.0000
     0.0000   0.0000   0.0000   0.0000   0.0000   0.0000   0.0000   0.0000
     0.0000   0.0000   0.0000   0.0000   0.0000   0.0000   0.0000   0.0000
     0.0000   0.0000   0.0000   0.0000

          k = 0.0417 0.3750 0.0414 (   554 PWs)   bands (ev):

   -16.3636 -16.0545 -15.9284   2.6125   3.2188   3.2735   4.3445   4.7247
     5.2270   5.3734   6.0681   6.1285  11.5808  13.1725  13.4281  13.4955
    13.8743  14.1873  14.4075  14.7372  16.3784  17.1198  17.2678  18.3215
    18.3708  18.6584  19.2173  19.2649  19.3337  19.4074  21.6170  21.7827
    24.7062  24.7777  26.1788  26.4936  27.1937  30.3920  30.8688  31.5794
    31.5981  32.6528  33.0765  34.0350  34.4379  34.8767  37.2844  39.8379
    40.0576  40.7654  41.4389  41.7837  41.9634  42.5451  42.9357  43.0927
    43.1950  43.3182  45.7256  46.0960

     occupation numbers 
     1.0000   1.0000   1.0000   1.0000   1.0000   1.0000   1.0000   1.0000
     1.0000   1.0000   1.0000   1.0000   0.0000   0.0000   0.0000   0.0000
     0.0000   0.0000   0.0000   0.0000   0.0000   0.0000   0.0000   0.0000
     0.0000   0.0000   0.0000   0.0000   0.0000   0.0000   0.0000   0.0000
     0.0000   0.0000   0.0000   0.0000   0.0000   0.0000   0.0000   0.0000
     0.0000   0.0000   0.0000   0.0000   0.0000   0.0000   0.0000   0.0000
     0.0000   0.0000   0.0000   0.0000   0.0000   0.0000   0.0000   0.0000
     0.0000   0.0000   0.0000   0.0000

          k = 0.0417 0.3750 0.1241 (   553 PWs)   bands (ev):

   -16.3442 -16.0502 -15.9351   2.4367   3.2984   3.4578   4.0257   4.6493
     5.1843   5.6806   5.9853   6.1256  11.9725  12.9585  13.4663  13.6720
    13.9332  14.5093  14.7988  15.0165  16.2336  16.9924  17.2586  18.1804
    18.5850  18.6272  19.1143  19.2168  19.3269  19.4736  21.6228  21.8044
    24.4596  24.6805  25.8333  26.3083  27.1911  30.3302  30.6439  30.9818
    31.0408  32.5443  33.4368  33.9447  35.2052  35.3882  37.5450  38.7230
    40.1840  40.5018  41.3452  41.6762  41.8164  42.4048  43.0689  43.4684
    43.6803  43.8533  45.4070  45.8242

     occupation numbers 
     1.0000   1.0000   1.0000   1.0000   1.0000   1.0000   1.0000   1.0000
     1.0000   1.0000   1.0000   1.0000   0.0000   0.0000   0.0000   0.0000
     0.0000   0.0000   0.0000   0.0000   0.0000   0.0000   0.0000   0.0000
     0.0000   0.0000   0.0000   0.0000   0.0000   0.0000   0.0000   0.0000
     0.0000   0.0000   0.0000   0.0000   0.0000   0.0000   0.0000   0.0000
     0.0000   0.0000   0.0000   0.0000   0.0000   0.0000   0.0000   0.0000
     0.0000   0.0000   0.0000   0.0000   0.0000   0.0000   0.0000   0.0000
     0.0000   0.0000   0.0000   0.0000

          k = 0.0417 0.3750 0.2068 (   556 PWs)   bands (ev):

   -16.3125 -16.0440 -15.9492   2.2287   3.3752   3.5514   3.6178   4.6823
     5.0040   5.6647   5.8652   6.3304  12.5313  12.7006  13.5793  13.8132
    14.2336  14.8267  15.1147  15.5504  16.0582  16.8990  17.1884  17.9646
    18.4416  18.4754  19.0683  19.1291  19.3417  19.4675  21.6607  21.8860
    23.7934  24.4556  25.5902  25.9528  26.8730  29.6734  30.1760  30.4685
    30.9620  32.5961  33.6732  33.8249  35.8508  36.2065  37.4481  38.2506
    39.8043  40.5677  40.9819  41.5714  41.8831  42.2750  43.0092  43.3774
    43.7906  44.1349  44.6013  45.4707

     occupation numbers 
     1.0000   1.0000   1.0000   1.0000   1.0000   1.0000   1.0000   1.0000
     1.0000   1.0000   1.0000   1.0000   0.0000   0.0000   0.0000   0.0000
     0.0000   0.0000   0.0000   0.0000   0.0000   0.0000   0.0000   0.0000
     0.0000   0.0000   0.0000   0.0000   0.0000   0.0000   0.0000   0.0000
     0.0000   0.0000   0.0000   0.0000   0.0000   0.0000   0.0000   0.0000
     0.0000   0.0000   0.0000   0.0000   0.0000   0.0000   0.0000   0.0000
     0.0000   0.0000   0.0000   0.0000   0.0000   0.0000   0.0000   0.0000
     0.0000   0.0000   0.0000   0.0000

          k = 0.0417 0.3750 0.2895 (   559 PWs)   bands (ev):

   -16.2803 -16.0372 -15.9586   2.0263   3.2163   3.4911   3.6164   4.5532
     4.9606   5.4565   5.7355   6.6465  12.6657  13.0995  13.5958  13.8662
    14.7708  15.2630  15.5361  16.0905  16.1812  16.9410  17.1165  17.7270
    18.0302  18.1707  18.9975  19.2080  19.3209  19.3729  21.5557  22.0511
    23.1389  24.1526  25.4226  25.4669  26.3535  28.9560  29.8292  30.0514
    30.8202  32.8122  33.7003  33.7725  36.2704  36.7050  37.3162  38.4278
    39.3009  40.3882  41.1908  41.5243  41.8648  42.2181  42.5455  42.7585
    43.0170  43.8163  44.2995  45.5979

     occupation numbers 
     1.0000   1.0000   1.0000   1.0000   1.0000   1.0000   1.0000   1.0000
     1.0000   1.0000   1.0000   1.0000   0.0000   0.0000   0.0000   0.0000
     0.0000   0.0000   0.0000   0.0000   0.0000   0.0000   0.0000   0.0000
     0.0000   0.0000   0.0000   0.0000   0.0000   0.0000   0.0000   0.0000
     0.0000   0.0000   0.0000   0.0000   0.0000   0.0000   0.0000   0.0000
     0.0000   0.0000   0.0000   0.0000   0.0000   0.0000   0.0000   0.0000
     0.0000   0.0000   0.0000   0.0000   0.0000   0.0000   0.0000   0.0000
     0.0000   0.0000   0.0000   0.0000

          k = 0.0417 0.3750 0.3722 (   562 PWs)   bands (ev):

   -16.2595 -16.0250 -15.9662   1.8220   2.9234   3.6145   3.6551   4.4009
     4.9108   5.3317   5.6552   6.8151  12.9145  13.5346  13.7002  13.9111
    15.3965  15.5827  15.7473  16.2778  16.4441  17.0455  17.1955  17.4166
    17.8267  17.9225  18.8367  19.1284  19.1917  19.5164  21.1491  21.8197
    23.1568  23.8567  24.9772  25.2753  25.8482  28.4254  29.4582  29.9160
    30.3938  33.1303  33.6234  33.6909  36.3630  36.8533  38.0089  38.2473
    39.2499  40.2062  41.0215  41.4748  41.5264  41.8197  41.8681  42.5191
    42.7296  43.4564  44.3776  46.0534

     occupation numbers 
     1.0000   1.0000   1.0000   1.0000   1.0000   1.0000   1.0000   1.0000
     1.0000   1.0000   1.0000   1.0000   0.0000   0.0000   0.0000   0.0000
     0.0000   0.0000   0.0000   0.0000   0.0000   0.0000   0.0000   0.0000
     0.0000   0.0000   0.0000   0.0000   0.0000   0.0000   0.0000   0.0000
     0.0000   0.0000   0.0000   0.0000   0.0000   0.0000   0.0000   0.0000
     0.0000   0.0000   0.0000   0.0000   0.0000   0.0000   0.0000   0.0000
     0.0000   0.0000   0.0000   0.0000   0.0000   0.0000   0.0000   0.0000
     0.0000   0.0000   0.0000   0.0000

          k = 0.0417 0.3750 0.4549 (   556 PWs)   bands (ev):

   -16.2505 -16.0090 -15.9747   1.7559   2.8846   3.6909   3.7036   4.3436
     4.7932   5.4749   5.6432   7.0103  13.0267  13.8438  13.9799  14.3613
    15.5090  15.9477  16.0810  16.2415  16.6287  17.0200  17.2148  17.3896
    17.8344  18.4518  18.6789  18.9414  19.1296  19.9916  20.6230  21.7107
    23.6831  23.8130  24.6898  25.1381  25.5037  28.1425  29.2737  29.8330
    30.0813  33.3404  33.5822  33.7436  36.5713  36.8716  38.2584  38.5475
    39.3959  40.0327  40.2937  41.1396  41.2782  41.7050  41.8723  42.5483
    42.9124  43.2605  44.3703  46.1980

     occupation numbers 
     1.0000   1.0000   1.0000   1.0000   1.0000   1.0000   1.0000   1.0000
     1.0000   1.0000   1.0000   1.0000   0.0000   0.0000   0.0000   0.0000
     0.0000   0.0000   0.0000   0.0000   0.0000   0.0000   0.0000   0.0000
     0.0000   0.0000   0.0000   0.0000   0.0000   0.0000   0.0000   0.0000
     0.0000   0.0000   0.0000   0.0000   0.0000   0.0000   0.0000   0.0000
     0.0000   0.0000   0.0000   0.0000   0.0000   0.0000   0.0000   0.0000
     0.0000   0.0000   0.0000   0.0000   0.0000   0.0000   0.0000   0.0000
     0.0000   0.0000   0.0000   0.0000

          k = 0.0417 0.4583 0.0414 (   567 PWs)   bands (ev):

   -16.2496 -16.1261 -15.9265   2.4137   3.1006   3.1175   4.1529   4.3406
     5.0413   5.1882   5.9870   6.1354  11.5927  13.3857  13.6558  13.8018
    14.1059  14.2463  14.3935  14.5669  16.2294  16.9394  17.0862  17.9599
    18.5781  18.6986  18.9868  19.0345  19.2885  19.3593  20.4857  22.6440
    24.8576  24.9483  25.3120  25.6876  26.0713  29.9043  30.5947  31.4358
    31.5330  32.5028  32.9618  33.9273  34.4218  35.0861  37.2813  40.0090
    40.2342  40.6969  41.7406  41.9528  42.1956  42.4952  42.7828  43.1439
    43.2964  43.5042  45.4810  46.3015

     occupation numbers 
     1.0000   1.0000   1.0000   1.0000   1.0000   1.0000   1.0000   1.0000
     1.0000   1.0000   1.0000   1.0000   0.0000   0.0000   0.0000   0.0000
     0.0000   0.0000   0.0000   0.0000   0.0000   0.0000   0.0000   0.0000
     0.0000   0.0000   0.0000   0.0000   0.0000   0.0000   0.0000   0.0000
     0.0000   0.0000   0.0000   0.0000   0.0000   0.0000   0.0000   0.0000
     0.0000   0.0000   0.0000   0.0000   0.0000   0.0000   0.0000   0.0000
     0.0000   0.0000   0.0000   0.0000   0.0000   0.0000   0.0000   0.0000
     0.0000   0.0000   0.0000   0.0000

          k = 0.0417 0.4583 0.1241 (   559 PWs)   bands (ev):

   -16.2415 -16.1122 -15.9353   2.3399   3.2273   3.3677   3.8103   4.4877
     5.0727   5.6390   5.8078   6.0423  12.0295  13.4575  13.7822  13.9164
    14.3723  14.5953  14.8441  14.9132  16.0821  16.7328  17.1785  18.1599
    18.6468  18.8545  19.0232  19.1069  19.2369  19.4193  20.5706  22.7500
    24.3045  24.8987  25.2705  25.5084  26.2658  29.8967  30.4948  30.7221
    30.9547  32.4410  33.4082  33.8799  35.2722  35.5839  37.5504  38.9428
[...]
     0.0000   0.0000   0.0000   0.0000   0.0000   0.0000   0.0000   0.0000
     0.0000   0.0000   0.0000   0.0000   0.0000   0.0000   0.0000   0.0000
     0.0000   0.0000   0.0000   0.0000   0.0000   0.0000   0.0000   0.0000
     0.0000   0.0000   0.0000   0.0000   0.0000   0.0000   0.0000   0.0000
     0.0000   0.0000   0.0000   0.0000   0.0000   0.0000   0.0000   0.0000
     0.0000   0.0000   0.0000   0.0000

          k = 0.3750 0.3750 0.3722 (   560 PWs)   bands (ev):

   -16.1733 -16.1065 -16.0776   1.4058   3.5155   3.6189   3.7588   4.1768
     4.2165   6.5833   6.5839   6.7933  12.4287  12.7252  12.7512  14.7859
    14.7885  15.5266  16.3614  16.3967  17.4437  18.1787  18.2732  18.2971
    18.3525  18.3984  19.4303  19.4376  19.5243  19.8054  20.9682  23.0605
    23.1189  23.6782  24.5832  24.6482  25.6268  25.7724  25.9409  26.0323
    34.4360  34.5385  35.7441  36.2549  36.6905  36.7202  36.9172  37.9226
    38.0560  38.6833  38.7759  38.7852  39.1420  40.3805  41.2091  41.4137
    43.2592  43.4135  44.3460  44.6308

     occupation numbers 
     1.0000   1.0000   1.0000   1.0000   1.0000   1.0000   1.0000   1.0000
     1.0000   1.0000   1.0000   1.0000   0.0000   0.0000   0.0000   0.0000
     0.0000   0.0000   0.0000   0.0000   0.0000   0.0000   0.0000   0.0000
     0.0000   0.0000   0.0000   0.0000   0.0000   0.0000   0.0000   0.0000
     0.0000   0.0000   0.0000   0.0000   0.0000   0.0000   0.0000   0.0000
     0.0000   0.0000   0.0000   0.0000   0.0000   0.0000   0.0000   0.0000
     0.0000   0.0000   0.0000   0.0000   0.0000   0.0000   0.0000   0.0000
     0.0000   0.0000   0.0000   0.0000

          k = 0.3750 0.3750 0.4549 (   565 PWs)   bands (ev):

   -16.1720 -16.1242 -16.0786   1.2204   3.4714   3.5755   3.8122   4.1417
     4.1633   6.6139   6.7280   6.9839  12.2913  12.5597  12.6334  14.4895
    14.9287  15.2745  16.3912  16.6493  17.4681  17.8979  18.1812  18.3089
    18.4473  18.8699  19.2385  19.4594  19.4688  19.7525  21.5568  22.4018
    23.5680  23.9435  24.1878  24.2784  25.4011  25.4377  25.6726  25.8293
    34.7983  34.8339  35.8508  36.0126  36.5518  36.8175  37.2875  37.3825
    38.3126  38.3596  38.3720  38.9731  39.1128  39.7548  41.1170  41.2087
    41.8552  43.1911  44.4585  44.7220

     occupation numbers 
     1.0000   1.0000   1.0000   1.0000   1.0000   1.0000   1.0000   1.0000
     1.0000   1.0000   1.0000   1.0000   0.0000   0.0000   0.0000   0.0000
     0.0000   0.0000   0.0000   0.0000   0.0000   0.0000   0.0000   0.0000
     0.0000   0.0000   0.0000   0.0000   0.0000   0.0000   0.0000   0.0000
     0.0000   0.0000   0.0000   0.0000   0.0000   0.0000   0.0000   0.0000
     0.0000   0.0000   0.0000   0.0000   0.0000   0.0000   0.0000   0.0000
     0.0000   0.0000   0.0000   0.0000   0.0000   0.0000   0.0000   0.0000
     0.0000   0.0000   0.0000   0.0000

          k = 0.3750 0.4583 0.0414 (   557 PWs)   bands (ev):

   -16.2090 -16.0253 -16.0011   1.7410   2.8398   3.6158   3.7292   4.2890
     4.7103   5.4940   5.6867   6.9962  12.9387  13.9184  14.0424  14.4286
    15.5139  15.9800  16.1562  16.2209  16.6119  17.0032  17.1924  17.4419
    17.8321  18.4550  18.6723  18.9586  19.0706  20.0625  20.7246  21.6679
    23.5618  23.7158  24.7301  25.4179  25.4277  28.2371  29.3670  29.7340
    30.0879  33.4656  33.5940  33.6831  36.4169  36.7543  38.3434  38.5399
    39.5330  40.1933  40.3566  40.9083  41.2431  41.6686  41.7425  42.3658
    42.7664  43.2290  44.1298  46.1475

     occupation numbers 
     1.0000   1.0000   1.0000   1.0000   1.0000   1.0000   1.0000   1.0000
     1.0000   1.0000   1.0000   1.0000   0.0000   0.0000   0.0000   0.0000
     0.0000   0.0000   0.0000   0.0000   0.0000   0.0000   0.0000   0.0000
     0.0000   0.0000   0.0000   0.0000   0.0000   0.0000   0.0000   0.0000
     0.0000   0.0000   0.0000   0.0000   0.0000   0.0000   0.0000   0.0000
     0.0000   0.0000   0.0000   0.0000   0.0000   0.0000   0.0000   0.0000
     0.0000   0.0000   0.0000   0.0000   0.0000   0.0000   0.0000   0.0000
     0.0000   0.0000   0.0000   0.0000

          k = 0.3750 0.4583 0.1241 (   554 PWs)   bands (ev):

   -16.1971 -16.0390 -16.0198   1.6734   3.0062   3.5787   3.8575   4.2770
     4.6225   5.7631   5.8914   7.0170  12.9051  13.8885  13.9972  14.2610
    15.5167  15.6531  15.9134  16.1115  16.5603  17.0363  17.7818  17.8519
    18.3705  18.4711  18.8214  19.0156  19.3113  20.2564  20.9757  21.3768
    23.6214  23.8440  24.6769  25.2975  25.4312  27.3281  28.7609  28.9484
    30.6762  33.7133  34.3854  34.6243  36.2071  36.6920  38.1356  38.5210
    39.3341  40.0477  40.2217  40.8308  41.1093  41.2555  41.5429  42.4152
    42.8255  43.1517  43.5979  45.5405

     occupation numbers 
     1.0000   1.0000   1.0000   1.0000   1.0000   1.0000   1.0000   1.0000
     1.0000   1.0000   1.0000   1.0000   0.0000   0.0000   0.0000   0.0000
     0.0000   0.0000   0.0000   0.0000   0.0000   0.0000   0.0000   0.0000
     0.0000   0.0000   0.0000   0.0000   0.0000   0.0000   0.0000   0.0000
     0.0000   0.0000   0.0000   0.0000   0.0000   0.0000   0.0000   0.0000
     0.0000   0.0000   0.0000   0.0000   0.0000   0.0000   0.0000   0.0000
     0.0000   0.0000   0.0000   0.0000   0.0000   0.0000   0.0000   0.0000
     0.0000   0.0000   0.0000   0.0000

          k = 0.3750 0.4583 0.2068 (   563 PWs)   bands (ev):

   -16.1799 -16.0631 -16.0526   1.5061   3.2253   3.4889   3.8055   4.1385
     4.3625   5.9893   6.1356   6.9310  12.6386  13.5867  13.6584  14.1469
    14.9369  15.3616  16.0809  16.2231  16.6158  17.1094  17.9315  18.0731
    18.5052  18.6565  18.7887  19.1751  19.4773  20.4540  20.7325  21.4415
    23.5380  23.9138  24.4893  25.0570  25.3538  26.5657  27.5068  27.6253
    32.0466  33.9890  35.1329  35.4774  36.0817  36.6498  37.8554  38.3729
    38.7983  39.4377  39.8637  40.3234  40.6081  40.8533  40.9414  42.3396
    42.6938  43.5376  43.8424  44.5182

     occupation numbers 
     1.0000   1.0000   1.0000   1.0000   1.0000   1.0000   1.0000   1.0000
     1.0000   1.0000   1.0000   1.0000   0.0000   0.0000   0.0000   0.0000
     0.0000   0.0000   0.0000   0.0000   0.0000   0.0000   0.0000   0.0000
     0.0000   0.0000   0.0000   0.0000   0.0000   0.0000   0.0000   0.0000
     0.0000   0.0000   0.0000   0.0000   0.0000   0.0000   0.0000   0.0000
     0.0000   0.0000   0.0000   0.0000   0.0000   0.0000   0.0000   0.0000
     0.0000   0.0000   0.0000   0.0000   0.0000   0.0000   0.0000   0.0000
     0.0000   0.0000   0.0000   0.0000

          k = 0.3750 0.4583 0.2895 (   560 PWs)   bands (ev):

   -16.1624 -16.0897 -16.0857   1.3852   3.5085   3.5516   3.7166   4.1858
     4.2474   6.3257   6.5098   6.9449  12.5193  13.0773  13.1477  14.3603
    15.0161  15.3529  16.2496  16.6710  17.2318  17.3744  18.0311  18.1932
    18.5766  18.7845  19.1553  19.4414  19.6528  19.8962  21.0977  22.0101
    23.5937  24.0413  24.3311  24.7453  25.4069  26.0070  26.4369  26.4804
    33.5087  34.4106  35.5803  35.9449  36.2944  36.7641  37.5865  37.9747
    38.3493  38.6374  39.3547  39.5177  39.6850  40.2681  40.9059  41.9117
    42.9655  43.6958  44.1805  44.4579

     occupation numbers 
     1.0000   1.0000   1.0000   1.0000   1.0000   1.0000   1.0000   1.0000
     1.0000   1.0000   1.0000   1.0000   0.0000   0.0000   0.0000   0.0000
     0.0000   0.0000   0.0000   0.0000   0.0000   0.0000   0.0000   0.0000
     0.0000   0.0000   0.0000   0.0000   0.0000   0.0000   0.0000   0.0000
     0.0000   0.0000   0.0000   0.0000   0.0000   0.0000   0.0000   0.0000
     0.0000   0.0000   0.0000   0.0000   0.0000   0.0000   0.0000   0.0000
     0.0000   0.0000   0.0000   0.0000   0.0000   0.0000   0.0000   0.0000
     0.0000   0.0000   0.0000   0.0000

          k = 0.3750 0.4583 0.3722 (   564 PWs)   bands (ev):

   -16.1605 -16.1163 -16.0978   1.2449   3.4700   3.5807   3.7751   4.1462
     4.2410   6.6049   6.7169   6.9373  12.2964  12.5820  12.6176  14.5852
    14.9286  15.3272  16.4331  16.6871  17.4841  17.9417  18.1907  18.2933
    18.3962  18.7978  19.2057  19.4694  19.5274  19.7659  21.6008  22.4174
    23.4435  24.0103  24.2074  24.3847  25.3758  25.5387  25.6983  25.7597
    34.7942  34.9332  35.8281  36.0772  36.4770  36.8622  37.2961  37.4297
    38.1194  38.2688  38.4277  39.1022  39.1461  39.7447  40.8995  41.4027
    41.9105  43.0515  44.4354  44.8062

     occupation numbers 
     1.0000   1.0000   1.0000   1.0000   1.0000   1.0000   1.0000   1.0000
     1.0000   1.0000   1.0000   1.0000   0.0000   0.0000   0.0000   0.0000
     0.0000   0.0000   0.0000   0.0000   0.0000   0.0000   0.0000   0.0000
     0.0000   0.0000   0.0000   0.0000   0.0000   0.0000   0.0000   0.0000
     0.0000   0.0000   0.0000   0.0000   0.0000   0.0000   0.0000   0.0000
     0.0000   0.0000   0.0000   0.0000   0.0000   0.0000   0.0000   0.0000
     0.0000   0.0000   0.0000   0.0000   0.0000   0.0000   0.0000   0.0000
     0.0000   0.0000   0.0000   0.0000

          k = 0.3750 0.4583 0.4549 (   568 PWs)   bands (ev):

   -16.1694 -16.1312 -16.0950   1.1625   3.3678   3.5016   3.9427   4.1080
     4.2092   6.7102   6.7703   6.9926  12.0555  12.3409  12.3669  14.6855
    14.9620  15.0456  16.5668  16.8744  17.5376  17.7963  18.0946  18.3034
    18.4217  18.9431  19.2520  19.5644  19.6494  19.7688  22.0236  22.4786
    23.2456  23.9988  24.0799  24.2197  25.1209  25.3473  25.4306  25.5777
    35.2996  35.4687  36.0807  36.2312  36.4319  36.5810  37.1756  37.3528
    37.6508  38.4272  38.5283  38.7439  38.9563  39.1772  40.6375  40.8310
    41.2145  42.1585  44.7820  44.9077

     occupation numbers 
     1.0000   1.0000   1.0000   1.0000   1.0000   1.0000   1.0000   1.0000
     1.0000   1.0000   1.0000   1.0000   0.0000   0.0000   0.0000   0.0000
     0.0000   0.0000   0.0000   0.0000   0.0000   0.0000   0.0000   0.0000
     0.0000   0.0000   0.0000   0.0000   0.0000   0.0000   0.0000   0.0000
     0.0000   0.0000   0.0000   0.0000   0.0000   0.0000   0.0000   0.0000
     0.0000   0.0000   0.0000   0.0000   0.0000   0.0000   0.0000   0.0000
     0.0000   0.0000   0.0000   0.0000   0.0000   0.0000   0.0000   0.0000
     0.0000   0.0000   0.0000   0.0000

          k = 0.4583 0.4583 0.0414 (   552 PWs)   bands (ev):

   -16.2133 -16.0084 -16.0026   1.5897   2.7917   3.6097   3.9685   4.2062
     4.4357   5.7129   5.7589   7.2414  12.7953  14.2424  14.4691  14.4944
    15.5978  16.2097  16.2680  16.3280  16.8165  17.0258  17.3812  17.6645
    17.8261  18.3199  18.8028  18.9374  19.4503  20.3596  20.5461  21.2724
    23.2842  23.9007  24.8613  25.1792  25.3227  27.9251  29.1628  29.6907
    29.7526  33.5776  33.5842  34.1131  36.5954  36.8779  38.1147  38.5949
    39.3870  40.1950  40.2444  40.7945  40.9497  41.3697  41.3847  42.2414
    42.4432  43.4380  44.1108  46.5258

     occupation numbers 
     1.0000   1.0000   1.0000   1.0000   1.0000   1.0000   1.0000   1.0000
     1.0000   1.0000   1.0000   1.0000   0.0000   0.0000   0.0000   0.0000
     0.0000   0.0000   0.0000   0.0000   0.0000   0.0000   0.0000   0.0000
     0.0000   0.0000   0.0000   0.0000   0.0000   0.0000   0.0000   0.0000
     0.0000   0.0000   0.0000   0.0000   0.0000   0.0000   0.0000   0.0000
     0.0000   0.0000   0.0000   0.0000   0.0000   0.0000   0.0000   0.0000
     0.0000   0.0000   0.0000   0.0000   0.0000   0.0000   0.0000   0.0000
     0.0000   0.0000   0.0000   0.0000

          k = 0.4583 0.4583 0.1241 (   555 PWs)   bands (ev):

   -16.2009 -16.0278 -16.0225   1.5010   2.9788   3.6100   4.0277   4.2087
     4.3666   5.8729   5.9036   7.1919  12.7266  14.2154  14.2784  14.3433
    15.5541  15.5829  15.8801  16.0812  16.8205  17.0390  17.5731  17.9012
    18.5609  18.5887  18.8567  19.0723  19.2413  20.4978  20.7495  20.9795
    23.4271  23.8431  24.7818  25.0567  25.3083  26.9781  28.6726  28.6966
    30.4750  34.2520  34.3871  34.4066  36.3356  36.7872  37.9483  38.3781
    39.1031  40.0381  40.1234  40.5515  41.1156  41.1446  41.5557  42.4155
    42.6562  42.9727  43.1958  45.3783

     occupation numbers 
     1.0000   1.0000   1.0000   1.0000   1.0000   1.0000   1.0000   1.0000
     1.0000   1.0000   1.0000   1.0000   0.0000   0.0000   0.0000   0.0000
     0.0000   0.0000   0.0000   0.0000   0.0000   0.0000   0.0000   0.0000
     0.0000   0.0000   0.0000   0.0000   0.0000   0.0000   0.0000   0.0000
     0.0000   0.0000   0.0000   0.0000   0.0000   0.0000   0.0000   0.0000
     0.0000   0.0000   0.0000   0.0000   0.0000   0.0000   0.0000   0.0000
     0.0000   0.0000   0.0000   0.0000   0.0000   0.0000   0.0000   0.0000
     0.0000   0.0000   0.0000   0.0000

          k = 0.4583 0.4583 0.2068 (   557 PWs)   bands (ev):

   -16.1805 -16.0605 -16.0567   1.4248   3.3097   3.5808   3.9477   4.1973
     4.2326   6.1487   6.1972   7.1338  12.5160  13.7964  13.8172  14.5181
    15.2117  15.2569  16.2315  16.3794  16.9351  17.2019  17.7743  17.8961
    18.5461  18.9718  19.1349  19.2304  19.4479  20.3781  20.9558  21.2728
    23.5950  23.7432  24.6272  24.8504  25.3190  26.1882  27.3964  27.4019
    31.9617  34.5735  35.2439  35.2840  36.1086  36.6517  37.6925  38.0773
    38.8590  39.6652  39.7142  40.3270  40.3756  40.5980  40.7685  42.5222
    43.0211  43.3895  43.3932  43.8164

     occupation numbers 
     1.0000   1.0000   1.0000   1.0000   1.0000   1.0000   1.0000   1.0000
     1.0000   1.0000   1.0000   1.0000   0.0000   0.0000   0.0000   0.0000
     0.0000   0.0000   0.0000   0.0000   0.0000   0.0000   0.0000   0.0000
     0.0000   0.0000   0.0000   0.0000   0.0000   0.0000   0.0000   0.0000
     0.0000   0.0000   0.0000   0.0000   0.0000   0.0000   0.0000   0.0000
     0.0000   0.0000   0.0000   0.0000   0.0000   0.0000   0.0000   0.0000
     0.0000   0.0000   0.0000   0.0000   0.0000   0.0000   0.0000   0.0000
     0.0000   0.0000   0.0000   0.0000

          k = 0.4583 0.4583 0.2895 (   560 PWs)   bands (ev):

   -16.1567 -16.0975 -16.0960   1.3050   3.4161   3.6767   3.7872   4.2161
     4.2178   6.4634   6.5509   7.0268  12.2938  13.0246  13.0484  14.6168
    14.9587  15.1075  16.2703  16.9881  17.4300  17.6410  17.7331  18.1422
    18.3100  19.2417  19.4376  19.5232  19.6214  19.6781  21.5810  21.9525
    23.5211  23.9260  24.4020  24.5549  25.4227  25.5858  26.2129  26.2390
    33.5903  35.0310  35.8138  35.9546  36.1518  36.4938  37.4200  37.7324
    38.5301  38.7703  39.2933  39.3774  39.5167  39.7990  40.6183  41.9303
    41.9889  44.1181  44.1699  44.3500

     occupation numbers 
     1.0000   1.0000   1.0000   1.0000   1.0000   1.0000   1.0000   1.0000
     1.0000   1.0000   1.0000   1.0000   0.0000   0.0000   0.0000   0.0000
     0.0000   0.0000   0.0000   0.0000   0.0000   0.0000   0.0000   0.0000
     0.0000   0.0000   0.0000   0.0000   0.0000   0.0000   0.0000   0.0000
     0.0000   0.0000   0.0000   0.0000   0.0000   0.0000   0.0000   0.0000
     0.0000   0.0000   0.0000   0.0000   0.0000   0.0000   0.0000   0.0000
     0.0000   0.0000   0.0000   0.0000   0.0000   0.0000   0.0000   0.0000
     0.0000   0.0000   0.0000   0.0000

          k = 0.4583 0.4583 0.3722 (   571 PWs)   bands (ev):

   -16.1444 -16.1301 -16.1216   1.1440   3.3017   3.4870   3.9266   4.1286
     4.1840   6.6927   6.7119   6.9680  12.0682  12.3294  12.3331  14.5582
    14.7120  14.9797  16.5115  16.9265  17.5457  17.8030  18.0984  18.2560
    18.3155  18.8895  19.2445  19.5293  19.6441  19.7499  22.0688  22.5140
    23.0660  24.0609  24.1450  24.2047  25.1798  25.3324  25.3514  25.6055
    35.2848  35.6253  36.0291  36.2333  36.3733  36.5662  37.2491  37.3674
    37.5805  38.3388  38.5191  38.8266  38.9482  39.1497  40.6517  40.6770
    41.3020  42.0027  44.7881  44.8042

     occupation numbers 
     1.0000   1.0000   1.0000   1.0000   1.0000   1.0000   1.0000   1.0000
     1.0000   1.0000   1.0000   1.0000   0.0000   0.0000   0.0000   0.0000
     0.0000   0.0000   0.0000   0.0000   0.0000   0.0000   0.0000   0.0000
     0.0000   0.0000   0.0000   0.0000   0.0000   0.0000   0.0000   0.0000
     0.0000   0.0000   0.0000   0.0000   0.0000   0.0000   0.0000   0.0000
     0.0000   0.0000   0.0000   0.0000   0.0000   0.0000   0.0000   0.0000
     0.0000   0.0000   0.0000   0.0000   0.0000   0.0000   0.0000   0.0000
     0.0000   0.0000   0.0000   0.0000

          k = 0.4583 0.4583 0.4549 (   558 PWs)   bands (ev):

   -16.1552 -16.1491 -16.1163   1.2079   3.3544   3.4797   4.2240   4.3296
     4.3504   6.9519   6.9635   7.0366  11.9178  11.9702  11.9948  15.0834
    15.3202  15.3732  16.8287  16.9278  17.6289  17.9076  17.9219  18.3987
    18.4241  19.4616  19.7204  19.7845  19.8325  19.9052  22.4403  22.7833
    22.9044  24.0378  24.0692  24.2593  24.9710  24.9849  25.0005  25.9679
    36.1152  36.2486  36.2892  36.3998  36.6838  36.8865  36.9573  37.2696
    37.6448  37.6796  38.2884  38.5112  38.7275  38.7365  39.9647  40.0857
    40.6988  40.9606  45.3377  45.3876

     occupation numbers 
     1.0000   1.0000   1.0000   1.0000   1.0000   1.0000   1.0000   1.0000
     1.0000   1.0000   1.0000   1.0000   0.0000   0.0000   0.0000   0.0000
     0.0000   0.0000   0.0000   0.0000   0.0000   0.0000   0.0000   0.0000
     0.0000   0.0000   0.0000   0.0000   0.0000   0.0000   0.0000   0.0000
     0.0000   0.0000   0.0000   0.0000   0.0000   0.0000   0.0000   0.0000
     0.0000   0.0000   0.0000   0.0000   0.0000   0.0000   0.0000   0.0000
     0.0000   0.0000   0.0000   0.0000   0.0000   0.0000   0.0000   0.0000
     0.0000   0.0000   0.0000   0.0000

     the Fermi energy is     8.8896 ev
     (compare with:     6.8926 eV, computed in scf)

     Writing all to output data dir ./out/BaTiO3.save/ :
     XML data file, pseudopotentials, collected wavefunctions

     init_run     :      0.20s CPU      0.21s WALL (       1 calls)
     electrons    :    228.64s CPU     75.19s WALL (       1 calls)

     Called by init_run:
     wfcinit      :      0.00s CPU      0.00s WALL (       1 calls)
     wfcinit:atom :      0.16s CPU      0.06s WALL (     126 calls)
     wfcinit:wfcr :     12.62s CPU      4.59s WALL (     126 calls)
     potinit      :      0.00s CPU      0.00s WALL (       1 calls)
     hinit0       :      0.19s CPU      0.19s WALL (       1 calls)

     Called by electrons:
     c_bands      :    228.61s CPU     75.18s WALL (       1 calls)
     v_of_rho     :      0.00s CPU      0.00s WALL (       1 calls)
     v_h          :      0.00s CPU      0.00s WALL (       1 calls)
     v_xc         :      0.00s CPU      0.00s WALL (       1 calls)

     Called by c_bands:
     init_us_2    :      0.13s CPU      0.05s WALL (     126 calls)
     cegterg      :    213.78s CPU     69.77s WALL (     259 calls)

     Called by sum_band:

     Called by *egterg:
     cdiaghg      :     79.92s CPU     24.99s WALL (    3983 calls)
     cegterg:over :      6.53s CPU      1.07s WALL (    3857 calls)
     cegterg:upda :      4.66s CPU      0.89s WALL (    3857 calls)
     cegterg:last :      5.88s CPU      0.90s WALL (    1829 calls)
     h_psi        :    123.61s CPU     45.47s WALL (    4242 calls)
     g_psi        :      2.24s CPU      0.35s WALL (    3857 calls)

     Called by h_psi:
     h_psi:calbec :      3.49s CPU      0.85s WALL (    4242 calls)
     vloc_psi     :    116.16s CPU     43.58s WALL (    4242 calls)
     add_vuspsi   :      2.78s CPU      0.71s WALL (    4242 calls)

     General routines
     calbec       :      3.44s CPU      0.83s WALL (    4242 calls)
     fft          :      0.14s CPU      0.14s WALL (      11 calls)
     fftw         :    102.50s CPU     38.41s WALL (  241772 calls)
     davcio       :      0.20s CPU      0.06s WALL (     252 calls)

     Parallel routines

     PWSCF        :   3m49.10s CPU   1m15.55s WALL


   This run was terminated on:  22:47:45  18Oct2024            

=------------------------------------------------------------------------------=
   JOB DONE.
=------------------------------------------------------------------------------=
