
     Program PWSCF v.7.3.1 starts on 18Oct2024 at 22:28:47 

     This program is part of the open-source Quantum ESPRESSO suite
     for quantum simulation of materials; please cite
         "P. Giannozzi et al., J. Phys.:Condens. Matter 21 395502 (2009);
         "P. Giannozzi et al., J. Phys.:Condens. Matter 29 465901 (2017);
         "P. Giannozzi et al., J. Chem. Phys. 152 154105 (2020);
          URL http://www.quantum-espresso.org", 
     in publications or presentations arising from this work. More details at
     http://www.quantum-espresso.org/quote

     Parallel version (MPI), running on     1 processors

     MPI processes distributed on     1 nodes
     22549 MiB available memory on the printing compute node when the environment starts

     Waiting for input...
     Reading input from standard input

     Current dimensions of program PWSCF are:
     Max number of different atomic species (ntypx) = 10
     Max number of k-points (npk) =  40000
     Max angular momentum in pseudopotentials (lmaxx) =  4
     file Ba.pbe-mt_fhi.UPF: wavefunction(s)  6p 5d 4f renormalized
     file Ti.pbe-mt_fhi.UPF: wavefunction(s)  4f renormalized
     file O.pbe-mt_fhi.UPF: wavefunction(s)  4f renormalized

     Subspace diagonalization in iterative solution of the eigenvalue problem:
     a serial algorithm will be used


     G-vector sticks info
     --------------------
     sticks:   dense  smooth     PW     G-vecs:    dense   smooth      PW
     Sum         325     325    101                 4441     4441     775

     Using Slab Decomposition



     bravais-lattice index     =            6
     lattice parameter (alat)  =       7.5400  a.u.
     unit-cell volume          =     431.8853 (a.u.)^3
     number of atoms/cell      =            5
     number of atomic types    =            3
     number of electrons       =        24.00
     number of Kohn-Sham states=           12
     kinetic-energy cutoff     =      18.0000  Ry
     charge density cutoff     =      72.0000  Ry
     scf convergence threshold =      1.0E-08
     mixing beta               =       0.7000
     number of iterations used =            8  plain     mixing
     Exchange-correlation= PBE
                           (   1   4   3   4   0   0   0)

     celldm(1)=   7.540007  celldm(2)=   0.000000  celldm(3)=   1.007519
     celldm(4)=   0.000000  celldm(5)=   0.000000  celldm(6)=   0.000000

     crystal axes: (cart. coord. in units of alat)
               a(1) = (   1.000000   0.000000   0.000000 )  
               a(2) = (   0.000000   1.000000   0.000000 )  
               a(3) = (   0.000000   0.000000   1.007519 )  

     reciprocal axes: (cart. coord. in units 2 pi/alat)
               b(1) = (  1.000000  0.000000  0.000000 )  
               b(2) = (  0.000000  1.000000  0.000000 )  
               b(3) = (  0.000000  0.000000  0.992537 )  


     PseudoPot. # 1 for Ba read from file:
     ./Ba.pbe-mt_fhi.UPF
     MD5 check sum: e433903a3ae973a33803749d57a646fb
     Pseudo is Norm-conserving + core correction, Zval =  2.0
     Generated using FHI98PP, converted with fhi2upf.x v.5.0.2
     Using radial grid of  553 points,  3 beta functions with: 
                l(1) =   1
                l(2) =   2
                l(3) =   3

     PseudoPot. # 2 for Ti read from file:
     ./Ti.pbe-mt_fhi.UPF
     MD5 check sum: d63cd306a9b93ee747718a82aae46d3d
     Pseudo is Norm-conserving, Zval =  4.0
     Generated using FHI98PP, converted with fhi2upf.x v.5.0.2
     Using radial grid of  515 points,  3 beta functions with: 
                l(1) =   0
                l(2) =   2
                l(3) =   3

     PseudoPot. # 3 for O  read from file:
     ./O.pbe-mt_fhi.UPF
     MD5 check sum: 1bb3d81471536849aa309dd26bc7a493
     Pseudo is Norm-conserving, Zval =  6.0
     Generated using FHI98PP, converted with fhi2upf.x v.5.0.2
     Using radial grid of  473 points,  3 beta functions with: 
                l(1) =   0
                l(2) =   1
                l(3) =   3

     atomic species   valence    mass     pseudopotential
     Ba                2.00   137.32700     Ba( 1.00)
     Ti                4.00    47.86700     Ti( 1.00)
     O                 6.00    15.99900     O ( 1.00)

      8 Sym. Ops. (no inversion) found



   Cartesian axes

     site n.     atom                  positions (alat units)
         1        Ba     tau(   1) = (   0.0000000   0.0000000   0.0000000  )
         2        Ti     tau(   2) = (   0.5000000   0.5000000   0.5070000  )
         3        O      tau(   3) = (   0.5000000   0.5000000   0.0000000  )
         4        O      tau(   4) = (   0.5000000   0.0000000   0.5210000  )
         5        O      tau(   5) = (   0.0000000   0.5000000   0.5210000  )

     number of k points=     6
                       cart. coord. in units 2pi/alat
        k(    1) = (   0.1250000   0.1250000   0.1240672), wk =   0.2500000
        k(    2) = (   0.1250000   0.1250000   0.3722015), wk =   0.2500000
        k(    3) = (   0.1250000   0.3750000   0.1240672), wk =   0.5000000
        k(    4) = (   0.1250000   0.3750000   0.3722015), wk =   0.5000000
        k(    5) = (   0.3750000   0.3750000   0.1240672), wk =   0.2500000
        k(    6) = (   0.3750000   0.3750000   0.3722015), wk =   0.2500000

     Dense  grid:     4441 G-vectors     FFT dimensions: (  24,  24,  24)

     Estimated max dynamical RAM per process >       6.63 MB

     Initial potential from superposition of free atoms

     starting charge      23.9824, renormalised to      24.0000

     negative rho (up, down):  3.181E-04 0.000E+00
     Starting wfcs are   80 randomized atomic wfcs

     total cpu time spent up to now is        0.7 secs

     Self-consistent Calculation

     iteration #  1     ecut=    18.00 Ry     beta= 0.70
     Davidson diagonalization with overlap
     ethr =  1.00E-02,  avg # of iterations =  2.0

     total cpu time spent up to now is        0.8 secs

     total energy              =     -98.11179447 Ry
     estimated scf accuracy    <       3.34779289 Ry

     iteration #  2     ecut=    18.00 Ry     beta= 0.70
     Davidson diagonalization with overlap
     ethr =  1.00E-02,  avg # of iterations =  3.7

     total cpu time spent up to now is        1.0 secs

     total energy              =     -99.38033258 Ry
     estimated scf accuracy    <       1.43435424 Ry

     iteration #  3     ecut=    18.00 Ry     beta= 0.70
     Davidson diagonalization with overlap
     ethr =  5.98E-03,  avg # of iterations =  2.0

     total cpu time spent up to now is        1.1 secs

     total energy              =     -99.44759936 Ry
     estimated scf accuracy    <       0.16607038 Ry

     iteration #  4     ecut=    18.00 Ry     beta= 0.70
     Davidson diagonalization with overlap
     ethr =  6.92E-04,  avg # of iterations =  4.2

     total cpu time spent up to now is        1.3 secs

     total energy              =     -99.50265134 Ry
     estimated scf accuracy    <       0.00641957 Ry

     iteration #  5     ecut=    18.00 Ry     beta= 0.70
     Davidson diagonalization with overlap
     ethr =  2.67E-05,  avg # of iterations =  5.0

     total cpu time spent up to now is        1.4 secs

     total energy              =     -99.50653534 Ry
     estimated scf accuracy    <       0.00100334 Ry

     iteration #  6     ecut=    18.00 Ry     beta= 0.70
     Davidson diagonalization with overlap
     ethr =  4.18E-06,  avg # of iterations =  3.7

     total cpu time spent up to now is        1.5 secs

     total energy              =     -99.50653304 Ry
     estimated scf accuracy    <       0.00042322 Ry

     iteration #  7     ecut=    18.00 Ry     beta= 0.70
     Davidson diagonalization with overlap
     ethr =  1.76E-06,  avg # of iterations =  4.2

     total cpu time spent up to now is        1.7 secs

     total energy              =     -99.50663452 Ry
     estimated scf accuracy    <       0.00001553 Ry

     iteration #  8     ecut=    18.00 Ry     beta= 0.70
     Davidson diagonalization with overlap
     ethr =  6.47E-08,  avg # of iterations =  6.8

     total cpu time spent up to now is        1.9 secs

     total energy              =     -99.50663683 Ry
     estimated scf accuracy    <       0.00009055 Ry

     iteration #  9     ecut=    18.00 Ry     beta= 0.70
     Davidson diagonalization with overlap
     ethr =  6.47E-08,  avg # of iterations =  4.0

     total cpu time spent up to now is        2.0 secs

     total energy              =     -99.50664824 Ry
     estimated scf accuracy    <       0.00000251 Ry

     iteration # 10     ecut=    18.00 Ry     beta= 0.70
     Davidson diagonalization with overlap
     ethr =  1.04E-08,  avg # of iterations =  5.8

     total cpu time spent up to now is        2.2 secs

     total energy              =     -99.50665054 Ry
     estimated scf accuracy    <       0.00000170 Ry

     iteration # 11     ecut=    18.00 Ry     beta= 0.70
     Davidson diagonalization with overlap
     ethr =  7.07E-09,  avg # of iterations =  1.0

     total cpu time spent up to now is        2.3 secs

     total energy              =     -99.50665014 Ry
     estimated scf accuracy    <       0.00000103 Ry

     iteration # 12     ecut=    18.00 Ry     beta= 0.70
     Davidson diagonalization with overlap
     ethr =  4.27E-09,  avg # of iterations =  2.5

     total cpu time spent up to now is        2.4 secs

     total energy              =     -99.50665027 Ry
     estimated scf accuracy    <       0.00000005 Ry

     iteration # 13     ecut=    18.00 Ry     beta= 0.70
     Davidson diagonalization with overlap
     ethr =  1.98E-10,  avg # of iterations =  5.5

     total cpu time spent up to now is        2.6 secs

     End of self-consistent calculation

          k = 0.1250 0.1250 0.1241 (   551 PWs)   bands (ev):

   -16.6126 -15.9711 -15.9451   2.8869   3.5552   3.5917   5.1282   5.2053
     5.3727   6.0920   6.5259   6.5594

          k = 0.1250 0.1250 0.3722 (   558 PWs)   bands (ev):

   -16.3383 -16.0180 -15.9750   2.3531   3.3980   3.4607   3.9218   4.3791
     5.1891   5.8185   5.9182   6.1232

          k = 0.1250 0.3750 0.1241 (   555 PWs)   bands (ev):

   -16.3249 -16.0446 -15.9522   2.3166   3.4100   3.4472   3.9212   4.3471
     5.1979   5.8617   5.9985   6.0913

          k = 0.1250 0.3750 0.3722 (   556 PWs)   bands (ev):

   -16.2464 -16.0376 -15.9838   1.7737   3.1049   3.6688   3.7605   4.3472
     4.6186   5.7229   5.9038   6.8926

          k = 0.3750 0.3750 0.1241 (   555 PWs)   bands (ev):

   -16.2159 -16.0368 -16.0154   1.7720   3.1255   3.5990   3.7880   4.3742
     4.6217   5.7165   5.9482   6.8918

          k = 0.3750 0.3750 0.3722 (   560 PWs)   bands (ev):

   -16.1738 -16.1069 -16.0781   1.4056   3.5153   3.6187   3.7586   4.1766
     4.2163   6.5830   6.5835   6.7930

     highest occupied level (ev):     6.8926

!    total energy              =     -99.50665031 Ry
     estimated scf accuracy    <          4.3E-09 Ry

     The total energy is the sum of the following terms:
     one-electron contribution =     -31.12067444 Ry
     hartree contribution      =      30.03815195 Ry
     xc contribution           =     -24.67928206 Ry
     ewald contribution        =     -73.74484576 Ry

     convergence has been achieved in  13 iterations

     Writing all to output data dir ./out/BaTiO3.save/ :
     XML data file, charge density, pseudopotentials, collected wavefunctions

     init_run     :      0.89s CPU      0.58s WALL (       1 calls)
     electrons    :      4.97s CPU      1.87s WALL (       1 calls)

     Called by init_run:
     wfcinit      :      0.62s CPU      0.30s WALL (       1 calls)
     potinit      :      0.04s CPU      0.04s WALL (       1 calls)
     hinit0       :      0.22s CPU      0.24s WALL (       1 calls)

     Called by electrons:
     c_bands      :      4.16s CPU      1.55s WALL (      13 calls)
     sum_band     :      0.52s CPU      0.20s WALL (      13 calls)
     v_of_rho     :      0.24s CPU      0.10s WALL (      14 calls)
     mix_rho      :      0.05s CPU      0.02s WALL (      13 calls)

     Called by c_bands:
     init_us_2    :      0.18s CPU      0.07s WALL (     162 calls)
     cegterg      :      3.79s CPU      1.40s WALL (      78 calls)

     Called by *egterg:
     cdiaghg      :      0.39s CPU      0.12s WALL (     380 calls)
     h_psi        :      3.64s CPU      1.46s WALL (     386 calls)
     g_psi        :      0.03s CPU      0.01s WALL (     302 calls)

     Called by h_psi:
     h_psi:calbec :      0.11s CPU      0.05s WALL (     386 calls)
     vloc_psi     :      3.39s CPU      1.37s WALL (     386 calls)
     add_vuspsi   :      0.11s CPU      0.03s WALL (     386 calls)

     General routines
     calbec       :      0.11s CPU      0.05s WALL (     386 calls)
     fft          :      0.21s CPU      0.17s WALL (     140 calls)
     ffts         :      0.01s CPU      0.00s WALL (      13 calls)
     fftw         :      3.27s CPU      1.33s WALL (    8298 calls)

     Parallel routines

     PWSCF        :      5.98s CPU      2.59s WALL


   This run was terminated on:  22:28:49  18Oct2024            

=------------------------------------------------------------------------------=
   JOB DONE.
=------------------------------------------------------------------------------=
