
     Program PWSCF v.7.3.1 starts on  5Dec2024 at 17:19:21 

     This program is part of the open-source Quantum ESPRESSO suite
     for quantum simulation of materials; please cite
         "P. Giannozzi et al., J. Phys.:Condens. Matter 21 395502 (2009);
         "P. Giannozzi et al., J. Phys.:Condens. Matter 29 465901 (2017);
         "P. Giannozzi et al., J. Chem. Phys. 152 154105 (2020);
          URL http://www.quantum-espresso.org", 
     in publications or presentations arising from this work. More details at
     http://www.quantum-espresso.org/quote

     Parallel version (MPI), running on     1 processors

     MPI processes distributed on     1 nodes
     24390 MiB available memory on the printing compute node when the environment starts

     Waiting for input...
     Reading input from standard input

     Current dimensions of program PWSCF are:
     Max number of different atomic species (ntypx) = 10
     Max number of k-points (npk) =  40000
     Max angular momentum in pseudopotentials (lmaxx) =  4
     file C.pbesol-n-kjpaw_psl.1.0.0.UPF: wavefunction(s)  2S 2P renormalized

     Atomic positions and unit cell read from directory:
     ./out/aiida.save/

     Found identity + (  0.0000 -0.5000  0.0000) symmetry
     This is a supercell, fractional translations are disabled
     Message from routine setup:
     using ibrav=0 with symmetry is DISCOURAGED, use correct ibrav instead

     Subspace diagonalization in iterative solution of the eigenvalue problem:
     a serial algorithm will be used


     G-vector sticks info
     --------------------
     sticks:   dense  smooth     PW     G-vecs:    dense   smooth      PW
     Sum        2149    1069    313                81561    28841    4569

     Using Slab Decomposition



     bravais-lattice index     =            0
     lattice parameter (alat)  =       9.2975  a.u.
     unit-cell volume          =     707.3387 (a.u.)^3
     number of atoms/cell      =            8
     number of atomic types    =            1
     number of electrons       =        32.00
     number of Kohn-Sham states=           20
     kinetic-energy cutoff     =      45.0000  Ry
     charge density cutoff     =     360.0000  Ry
     Exchange-correlation= SLA  PW   PSX  PSC
                           (   1   4  10   8   0   0   0)

     celldm(1)=   9.297453  celldm(2)=   0.000000  celldm(3)=   0.000000
     celldm(4)=   0.000000  celldm(5)=   0.000000  celldm(6)=   0.000000

     crystal axes: (cart. coord. in units of alat)
               a(1) = (   1.000000   0.000000   0.000000 )  
               a(2) = (  -0.500000   0.866025   0.000000 )  
               a(3) = (   0.000000   0.000000   1.016260 )  

     reciprocal axes: (cart. coord. in units 2 pi/alat)
               b(1) = (  1.000000  0.577350 -0.000000 )  
               b(2) = (  0.000000  1.154701  0.000000 )  
               b(3) = (  0.000000 -0.000000  0.984000 )  


     PseudoPot. # 1 for C  read from file:
     ./C.pbesol-n-kjpaw_psl.1.0.0.UPF
     MD5 check sum: f9b2fe17d1f478429498b05d17159f9e
     Pseudo is Projector augmented-wave + core cor, Zval =  4.0
     Generated using &quot;atomic&quot; code by A. Dal Corso  v.6.3
     Shape of augmentation charge: PSQ
     Using radial grid of 1073 points,  4 beta functions with: 
                l(1) =   0
                l(2) =   0
                l(3) =   1
                l(4) =   1
     Q(r) pseudized with 0 coefficients 


     atomic species   valence    mass     pseudopotential
     C                 4.00    12.01070     C ( 1.00)

      6 Sym. Ops. (no inversion) found


                                    s                        frac. trans.

      isym =  1     identity                                     

 cryst.   s( 1) = (     1          0          0      )
                  (     0          1          0      )
                  (     0          0          1      )

 cart.    s( 1) = (  1.0000000  0.0000000  0.0000000 )
                  (  0.0000000  1.0000000  0.0000000 )
                  (  0.0000000  0.0000000  1.0000000 )


      isym =  2     120 deg rotation - cryst. axis [0,0,1]       

 cryst.   s( 2) = (     0          1          0      )
                  (    -1         -1          0      )
                  (     0          0          1      )

 cart.    s( 2) = ( -0.5000000 -0.8660254  0.0000000 )
                  (  0.8660254 -0.5000000  0.0000000 )
                  (  0.0000000  0.0000000  1.0000000 )


      isym =  3     120 deg rotation - cryst. axis [0,0,-1]      

 cryst.   s( 3) = (    -1         -1          0      )
                  (     1          0          0      )
                  (     0          0          1      )

 cart.    s( 3) = ( -0.5000000  0.8660254  0.0000000 )
                  ( -0.8660254 -0.5000000  0.0000000 )
                  (  0.0000000  0.0000000  1.0000000 )


      isym =  4     inv. 180 deg rotation - cart. axis [1,0,0]   

 cryst.   s( 4) = (    -1          0          0      )
                  (     1          1          0      )
                  (     0          0          1      )

 cart.    s( 4) = ( -1.0000000  0.0000000  0.0000000 )
                  (  0.0000000  1.0000000  0.0000000 )
                  (  0.0000000  0.0000000  1.0000000 )


      isym =  5     inv. 180 deg rotation - cryst. axis [0,1,0]  

 cryst.   s( 5) = (     1          1          0      )
                  (     0         -1          0      )
                  (     0          0          1      )

 cart.    s( 5) = (  0.5000000  0.8660254  0.0000000 )
                  (  0.8660254 -0.5000000  0.0000000 )
                  (  0.0000000  0.0000000  1.0000000 )


      isym =  6     inv. 180 deg rotation - cryst. axis [1,1,0]  

 cryst.   s( 6) = (     0         -1          0      )
                  (    -1          0          0      )
                  (     0          0          1      )

 cart.    s( 6) = (  0.5000000 -0.8660254  0.0000000 )
                  ( -0.8660254 -0.5000000  0.0000000 )
                  (  0.0000000  0.0000000  1.0000000 )


   Cartesian axes

     site n.     atom                  positions (alat units)
         1        C      tau(   1) = (   0.0000000   0.0000000   0.2540650  )
         2        C      tau(   2) = (  -0.2500000   0.4330127   0.2540650  )
         3        C      tau(   3) = (   0.5000000   0.0000000   0.2540650  )
         4        C      tau(   4) = (   0.2500000   0.4330127   0.2540650  )
         5        C      tau(   5) = (  -0.0000005   0.2886748   0.2540650  )
         6        C      tau(   6) = (  -0.2500005   0.7216875   0.2540650  )
         7        C      tau(   7) = (   0.4999995   0.2886748   0.2540650  )
         8        C      tau(   8) = (   0.2499995   0.7216875   0.2540650  )

   Crystallographic axes

     site n.     atom                  positions (cryst. coord.)
         1        C      tau(   1) = (  0.0000000  0.0000000  0.2500000  )
         2        C      tau(   2) = (  0.0000000  0.5000000  0.2500000  )
         3        C      tau(   3) = (  0.5000000  0.0000000  0.2500000  )
         4        C      tau(   4) = (  0.5000000  0.5000000  0.2500000  )
         5        C      tau(   5) = (  0.1666660  0.3333330  0.2500000  )
         6        C      tau(   6) = (  0.1666660  0.8333330  0.2500000  )
         7        C      tau(   7) = (  0.6666660  0.3333330  0.2500000  )
         8        C      tau(   8) = (  0.6666660  0.8333330  0.2500000  )

     number of k points=   704  Marzari-Vanderbilt smearing, width (Ry)=  0.0200
                       cart. coord. in units 2pi/alat
        k(    1) = (   0.0000000   0.0000000   0.0000000), wk =   0.0002778
        k(    2) = (   0.0000000   0.0000000   0.0546667), wk =   0.0005556
        k(    3) = (   0.0000000   0.0000000   0.1093333), wk =   0.0005556
        k(    4) = (   0.0000000   0.0000000   0.1640000), wk =   0.0005556
        k(    5) = (   0.0000000   0.0000000   0.2186667), wk =   0.0005556
        k(    6) = (   0.0000000   0.0000000   0.2733333), wk =   0.0005556
        k(    7) = (   0.0000000   0.0000000   0.3280000), wk =   0.0005556
        k(    8) = (   0.0000000   0.0000000   0.3826667), wk =   0.0005556
        k(    9) = (   0.0000000   0.0000000   0.4373333), wk =   0.0005556
        k(   10) = (   0.0000000   0.0000000  -0.4920000), wk =   0.0002778
        k(   11) = (   0.0000000   0.0577350   0.0000000), wk =   0.0016667
        k(   12) = (   0.0000000   0.0577350   0.0546667), wk =   0.0016667
        k(   13) = (   0.0000000   0.0577350   0.1093333), wk =   0.0016667
        k(   14) = (   0.0000000   0.0577350   0.1640000), wk =   0.0016667
        k(   15) = (   0.0000000   0.0577350   0.2186667), wk =   0.0016667
        k(   16) = (   0.0000000   0.0577350   0.2733333), wk =   0.0016667
        k(   17) = (   0.0000000   0.0577350   0.3280000), wk =   0.0016667
        k(   18) = (   0.0000000   0.0577350   0.3826667), wk =   0.0016667
        k(   19) = (   0.0000000   0.0577350   0.4373333), wk =   0.0016667
        k(   20) = (   0.0000000   0.0577350  -0.4920000), wk =   0.0016667
        k(   21) = (   0.0000000   0.1154701   0.0000000), wk =   0.0016667
        k(   22) = (   0.0000000   0.1154701   0.0546667), wk =   0.0016667
        k(   23) = (   0.0000000   0.1154701   0.1093333), wk =   0.0016667
        k(   24) = (   0.0000000   0.1154701   0.1640000), wk =   0.0016667
        k(   25) = (   0.0000000   0.1154701   0.2186667), wk =   0.0016667
        k(   26) = (   0.0000000   0.1154701   0.2733333), wk =   0.0016667
        k(   27) = (   0.0000000   0.1154701   0.3280000), wk =   0.0016667
        k(   28) = (   0.0000000   0.1154701   0.3826667), wk =   0.0016667
        k(   29) = (   0.0000000   0.1154701   0.4373333), wk =   0.0016667
        k(   30) = (   0.0000000   0.1154701  -0.4920000), wk =   0.0016667
        k(   31) = (   0.0000000   0.1732051   0.0000000), wk =   0.0016667
        k(   32) = (   0.0000000   0.1732051   0.0546667), wk =   0.0016667
        k(   33) = (   0.0000000   0.1732051   0.1093333), wk =   0.0016667
        k(   34) = (   0.0000000   0.1732051   0.1640000), wk =   0.0016667
        k(   35) = (   0.0000000   0.1732051   0.2186667), wk =   0.0016667
        k(   36) = (   0.0000000   0.1732051   0.2733333), wk =   0.0016667
        k(   37) = (   0.0000000   0.1732051   0.3280000), wk =   0.0016667
        k(   38) = (   0.0000000   0.1732051   0.3826667), wk =   0.0016667
        k(   39) = (   0.0000000   0.1732051   0.4373333), wk =   0.0016667
        k(   40) = (   0.0000000   0.1732051  -0.4920000), wk =   0.0016667
        k(   41) = (   0.0000000   0.2309401   0.0000000), wk =   0.0016667
        k(   42) = (   0.0000000   0.2309401   0.0546667), wk =   0.0016667
        k(   43) = (   0.0000000   0.2309401   0.1093333), wk =   0.0016667
        k(   44) = (   0.0000000   0.2309401   0.1640000), wk =   0.0016667
        k(   45) = (   0.0000000   0.2309401   0.2186667), wk =   0.0016667
        k(   46) = (   0.0000000   0.2309401   0.2733333), wk =   0.0016667
        k(   47) = (   0.0000000   0.2309401   0.3280000), wk =   0.0016667
        k(   48) = (   0.0000000   0.2309401   0.3826667), wk =   0.0016667
        k(   49) = (   0.0000000   0.2309401   0.4373333), wk =   0.0016667
        k(   50) = (   0.0000000   0.2309401  -0.4920000), wk =   0.0016667
        k(   51) = (   0.0000000   0.2886751   0.0000000), wk =   0.0016667
        k(   52) = (   0.0000000   0.2886751   0.0546667), wk =   0.0016667
        k(   53) = (   0.0000000   0.2886751   0.1093333), wk =   0.0016667
        k(   54) = (   0.0000000   0.2886751   0.1640000), wk =   0.0016667
        k(   55) = (   0.0000000   0.2886751   0.2186667), wk =   0.0016667
        k(   56) = (   0.0000000   0.2886751   0.2733333), wk =   0.0016667
        k(   57) = (   0.0000000   0.2886751   0.3280000), wk =   0.0016667
        k(   58) = (   0.0000000   0.2886751   0.3826667), wk =   0.0016667
        k(   59) = (   0.0000000   0.2886751   0.4373333), wk =   0.0016667
        k(   60) = (   0.0000000   0.2886751  -0.4920000), wk =   0.0016667
        k(   61) = (   0.0000000   0.3464102   0.0000000), wk =   0.0016667
        k(   62) = (   0.0000000   0.3464102   0.0546667), wk =   0.0016667
        k(   63) = (   0.0000000   0.3464102   0.1093333), wk =   0.0016667
        k(   64) = (   0.0000000   0.3464102   0.1640000), wk =   0.0016667
        k(   65) = (   0.0000000   0.3464102   0.2186667), wk =   0.0016667
        k(   66) = (   0.0000000   0.3464102   0.2733333), wk =   0.0016667
        k(   67) = (   0.0000000   0.3464102   0.3280000), wk =   0.0016667
        k(   68) = (   0.0000000   0.3464102   0.3826667), wk =   0.0016667
        k(   69) = (   0.0000000   0.3464102   0.4373333), wk =   0.0016667
        k(   70) = (   0.0000000   0.3464102  -0.4920000), wk =   0.0016667
        k(   71) = (   0.0000000   0.4041452   0.0000000), wk =   0.0016667
        k(   72) = (   0.0000000   0.4041452   0.0546667), wk =   0.0016667
        k(   73) = (   0.0000000   0.4041452   0.1093333), wk =   0.0016667
        k(   74) = (   0.0000000   0.4041452   0.1640000), wk =   0.0016667
        k(   75) = (   0.0000000   0.4041452   0.2186667), wk =   0.0016667
        k(   76) = (   0.0000000   0.4041452   0.2733333), wk =   0.0016667
        k(   77) = (   0.0000000   0.4041452   0.3280000), wk =   0.0016667
        k(   78) = (   0.0000000   0.4041452   0.3826667), wk =   0.0016667
        k(   79) = (   0.0000000   0.4041452   0.4373333), wk =   0.0016667
        k(   80) = (   0.0000000   0.4041452  -0.4920000), wk =   0.0016667
        k(   81) = (   0.0000000   0.4618802   0.0000000), wk =   0.0016667
        k(   82) = (   0.0000000   0.4618802   0.0546667), wk =   0.0016667
        k(   83) = (   0.0000000   0.4618802   0.1093333), wk =   0.0016667
        k(   84) = (   0.0000000   0.4618802   0.1640000), wk =   0.0016667
        k(   85) = (   0.0000000   0.4618802   0.2186667), wk =   0.0016667
        k(   86) = (   0.0000000   0.4618802   0.2733333), wk =   0.0016667
        k(   87) = (   0.0000000   0.4618802   0.3280000), wk =   0.0016667
        k(   88) = (   0.0000000   0.4618802   0.3826667), wk =   0.0016667
        k(   89) = (   0.0000000   0.4618802   0.4373333), wk =   0.0016667
        k(   90) = (   0.0000000   0.4618802  -0.4920000), wk =   0.0016667
        k(   91) = (   0.0000000   0.5196152   0.0000000), wk =   0.0016667
        k(   92) = (   0.0000000   0.5196152   0.0546667), wk =   0.0016667
        k(   93) = (   0.0000000   0.5196152   0.1093333), wk =   0.0016667
        k(   94) = (   0.0000000   0.5196152   0.1640000), wk =   0.0016667
        k(   95) = (   0.0000000   0.5196152   0.2186667), wk =   0.0016667
        k(   96) = (   0.0000000   0.5196152   0.2733333), wk =   0.0016667
        k(   97) = (   0.0000000   0.5196152   0.3280000), wk =   0.0016667
        k(   98) = (   0.0000000   0.5196152   0.3826667), wk =   0.0016667
        k(   99) = (   0.0000000   0.5196152   0.4373333), wk =   0.0016667
        k(  100) = (   0.0000000   0.5196152  -0.4920000), wk =   0.0016667
        k(  101) = (   0.0000000  -0.5773503   0.0000000), wk =   0.0008333
        k(  102) = (   0.0000000  -0.5773503   0.0546667), wk =   0.0016667
        k(  103) = (   0.0000000  -0.5773503   0.1093333), wk =   0.0016667
        k(  104) = (   0.0000000  -0.5773503   0.1640000), wk =   0.0016667
        k(  105) = (   0.0000000  -0.5773503   0.2186667), wk =   0.0016667
        k(  106) = (   0.0000000  -0.5773503   0.2733333), wk =   0.0016667
        k(  107) = (   0.0000000  -0.5773503   0.3280000), wk =   0.0016667
        k(  108) = (   0.0000000  -0.5773503   0.3826667), wk =   0.0016667
        k(  109) = (   0.0000000  -0.5773503   0.4373333), wk =   0.0016667
        k(  110) = (   0.0000000  -0.5773503  -0.4920000), wk =   0.0008333
        k(  111) = (   0.0500000   0.0866025   0.0000000), wk =   0.0016667
        k(  112) = (   0.0500000   0.0866025   0.0546667), wk =   0.0033333
        k(  113) = (   0.0500000   0.0866025   0.1093333), wk =   0.0033333
        k(  114) = (   0.0500000   0.0866025   0.1640000), wk =   0.0033333
        k(  115) = (   0.0500000   0.0866025   0.2186667), wk =   0.0033333
        k(  116) = (   0.0500000   0.0866025   0.2733333), wk =   0.0033333
        k(  117) = (   0.0500000   0.0866025   0.3280000), wk =   0.0033333
        k(  118) = (   0.0500000   0.0866025   0.3826667), wk =   0.0033333
        k(  119) = (   0.0500000   0.0866025   0.4373333), wk =   0.0033333
        k(  120) = (   0.0500000   0.0866025  -0.4920000), wk =   0.0016667
        k(  121) = (   0.0500000   0.1443376   0.0000000), wk =   0.0033333
        k(  122) = (   0.0500000   0.1443376   0.0546667), wk =   0.0033333
        k(  123) = (   0.0500000   0.1443376   0.1093333), wk =   0.0033333
        k(  124) = (   0.0500000   0.1443376   0.1640000), wk =   0.0033333
        k(  125) = (   0.0500000   0.1443376   0.2186667), wk =   0.0033333
        k(  126) = (   0.0500000   0.1443376   0.2733333), wk =   0.0033333
        k(  127) = (   0.0500000   0.1443376   0.3280000), wk =   0.0033333
        k(  128) = (   0.0500000   0.1443376   0.3826667), wk =   0.0033333
        k(  129) = (   0.0500000   0.1443376   0.4373333), wk =   0.0033333
        k(  130) = (   0.0500000   0.1443376  -0.4920000), wk =   0.0033333
        k(  131) = (   0.0500000   0.2020726   0.0000000), wk =   0.0033333
        k(  132) = (   0.0500000   0.2020726   0.0546667), wk =   0.0033333
        k(  133) = (   0.0500000   0.2020726   0.1093333), wk =   0.0033333
        k(  134) = (   0.0500000   0.2020726   0.1640000), wk =   0.0033333
        k(  135) = (   0.0500000   0.2020726   0.2186667), wk =   0.0033333
        k(  136) = (   0.0500000   0.2020726   0.2733333), wk =   0.0033333
        k(  137) = (   0.0500000   0.2020726   0.3280000), wk =   0.0033333
        k(  138) = (   0.0500000   0.2020726   0.3826667), wk =   0.0033333
        k(  139) = (   0.0500000   0.2020726   0.4373333), wk =   0.0033333
        k(  140) = (   0.0500000   0.2020726  -0.4920000), wk =   0.0033333
        k(  141) = (   0.0500000   0.2598076   0.0000000), wk =   0.0033333
        k(  142) = (   0.0500000   0.2598076   0.0546667), wk =   0.0033333
        k(  143) = (   0.0500000   0.2598076   0.1093333), wk =   0.0033333
        k(  144) = (   0.0500000   0.2598076   0.1640000), wk =   0.0033333
        k(  145) = (   0.0500000   0.2598076   0.2186667), wk =   0.0033333
        k(  146) = (   0.0500000   0.2598076   0.2733333), wk =   0.0033333
        k(  147) = (   0.0500000   0.2598076   0.3280000), wk =   0.0033333
        k(  148) = (   0.0500000   0.2598076   0.3826667), wk =   0.0033333
        k(  149) = (   0.0500000   0.2598076   0.4373333), wk =   0.0033333
        k(  150) = (   0.0500000   0.2598076  -0.4920000), wk =   0.0033333
        k(  151) = (   0.0500000   0.3175426   0.0000000), wk =   0.0033333
        k(  152) = (   0.0500000   0.3175426   0.0546667), wk =   0.0033333
        k(  153) = (   0.0500000   0.3175426   0.1093333), wk =   0.0033333
        k(  154) = (   0.0500000   0.3175426   0.1640000), wk =   0.0033333
        k(  155) = (   0.0500000   0.3175426   0.2186667), wk =   0.0033333
        k(  156) = (   0.0500000   0.3175426   0.2733333), wk =   0.0033333
        k(  157) = (   0.0500000   0.3175426   0.3280000), wk =   0.0033333
        k(  158) = (   0.0500000   0.3175426   0.3826667), wk =   0.0033333
        k(  159) = (   0.0500000   0.3175426   0.4373333), wk =   0.0033333
        k(  160) = (   0.0500000   0.3175426  -0.4920000), wk =   0.0033333
        k(  161) = (   0.0500000   0.3752777   0.0000000), wk =   0.0033333
        k(  162) = (   0.0500000   0.3752777   0.0546667), wk =   0.0033333
        k(  163) = (   0.0500000   0.3752777   0.1093333), wk =   0.0033333
        k(  164) = (   0.0500000   0.3752777   0.1640000), wk =   0.0033333
        k(  165) = (   0.0500000   0.3752777   0.2186667), wk =   0.0033333
        k(  166) = (   0.0500000   0.3752777   0.2733333), wk =   0.0033333
        k(  167) = (   0.0500000   0.3752777   0.3280000), wk =   0.0033333
        k(  168) = (   0.0500000   0.3752777   0.3826667), wk =   0.0033333
        k(  169) = (   0.0500000   0.3752777   0.4373333), wk =   0.0033333
        k(  170) = (   0.0500000   0.3752777  -0.4920000), wk =   0.0033333
        k(  171) = (   0.0500000   0.4330127   0.0000000), wk =   0.0033333
        k(  172) = (   0.0500000   0.4330127   0.0546667), wk =   0.0033333
        k(  173) = (   0.0500000   0.4330127   0.1093333), wk =   0.0033333
        k(  174) = (   0.0500000   0.4330127   0.1640000), wk =   0.0033333
        k(  175) = (   0.0500000   0.4330127   0.2186667), wk =   0.0033333
        k(  176) = (   0.0500000   0.4330127   0.2733333), wk =   0.0033333
        k(  177) = (   0.0500000   0.4330127   0.3280000), wk =   0.0033333
        k(  178) = (   0.0500000   0.4330127   0.3826667), wk =   0.0033333
        k(  179) = (   0.0500000   0.4330127   0.4373333), wk =   0.0033333
        k(  180) = (   0.0500000   0.4330127  -0.4920000), wk =   0.0033333
        k(  181) = (   0.0500000   0.4907477   0.0000000), wk =   0.0033333
        k(  182) = (   0.0500000   0.4907477   0.0546667), wk =   0.0033333
        k(  183) = (   0.0500000   0.4907477   0.1093333), wk =   0.0033333
        k(  184) = (   0.0500000   0.4907477   0.1640000), wk =   0.0033333
        k(  185) = (   0.0500000   0.4907477   0.2186667), wk =   0.0033333
        k(  186) = (   0.0500000   0.4907477   0.2733333), wk =   0.0033333
        k(  187) = (   0.0500000   0.4907477   0.3280000), wk =   0.0033333
        k(  188) = (   0.0500000   0.4907477   0.3826667), wk =   0.0033333
        k(  189) = (   0.0500000   0.4907477   0.4373333), wk =   0.0033333
        k(  190) = (   0.0500000   0.4907477  -0.4920000), wk =   0.0033333
        k(  191) = (   0.0500000   0.5484828   0.0000000), wk =   0.0033333
        k(  192) = (   0.0500000   0.5484828   0.0546667), wk =   0.0033333
        k(  193) = (   0.0500000   0.5484828   0.1093333), wk =   0.0033333
        k(  194) = (   0.0500000   0.5484828   0.1640000), wk =   0.0033333
        k(  195) = (   0.0500000   0.5484828   0.2186667), wk =   0.0033333
        k(  196) = (   0.0500000   0.5484828   0.2733333), wk =   0.0033333
        k(  197) = (   0.0500000   0.5484828   0.3280000), wk =   0.0033333
        k(  198) = (   0.0500000   0.5484828   0.3826667), wk =   0.0033333
        k(  199) = (   0.0500000   0.5484828   0.4373333), wk =   0.0033333
        k(  200) = (   0.0500000   0.5484828  -0.4920000), wk =   0.0033333
        k(  201) = (   0.1000000   0.1732051   0.0000000), wk =   0.0016667
        k(  202) = (   0.1000000   0.1732051   0.0546667), wk =   0.0033333
        k(  203) = (   0.1000000   0.1732051   0.1093333), wk =   0.0033333
        k(  204) = (   0.1000000   0.1732051   0.1640000), wk =   0.0033333
        k(  205) = (   0.1000000   0.1732051   0.2186667), wk =   0.0033333
        k(  206) = (   0.1000000   0.1732051   0.2733333), wk =   0.0033333
        k(  207) = (   0.1000000   0.1732051   0.3280000), wk =   0.0033333
        k(  208) = (   0.1000000   0.1732051   0.3826667), wk =   0.0033333
        k(  209) = (   0.1000000   0.1732051   0.4373333), wk =   0.0033333
        k(  210) = (   0.1000000   0.1732051  -0.4920000), wk =   0.0016667
        k(  211) = (   0.1000000   0.2309401   0.0000000), wk =   0.0033333
        k(  212) = (   0.1000000   0.2309401   0.0546667), wk =   0.0033333
        k(  213) = (   0.1000000   0.2309401   0.1093333), wk =   0.0033333
        k(  214) = (   0.1000000   0.2309401   0.1640000), wk =   0.0033333
        k(  215) = (   0.1000000   0.2309401   0.2186667), wk =   0.0033333
        k(  216) = (   0.1000000   0.2309401   0.2733333), wk =   0.0033333
        k(  217) = (   0.1000000   0.2309401   0.3280000), wk =   0.0033333
        k(  218) = (   0.1000000   0.2309401   0.3826667), wk =   0.0033333
        k(  219) = (   0.1000000   0.2309401   0.4373333), wk =   0.0033333
        k(  220) = (   0.1000000   0.2309401  -0.4920000), wk =   0.0033333
        k(  221) = (   0.1000000   0.2886751   0.0000000), wk =   0.0033333
        k(  222) = (   0.1000000   0.2886751   0.0546667), wk =   0.0033333
        k(  223) = (   0.1000000   0.2886751   0.1093333), wk =   0.0033333
        k(  224) = (   0.1000000   0.2886751   0.1640000), wk =   0.0033333
        k(  225) = (   0.1000000   0.2886751   0.2186667), wk =   0.0033333
        k(  226) = (   0.1000000   0.2886751   0.2733333), wk =   0.0033333
        k(  227) = (   0.1000000   0.2886751   0.3280000), wk =   0.0033333
        k(  228) = (   0.1000000   0.2886751   0.3826667), wk =   0.0033333
        k(  229) = (   0.1000000   0.2886751   0.4373333), wk =   0.0033333
        k(  230) = (   0.1000000   0.2886751  -0.4920000), wk =   0.0033333
        k(  231) = (   0.1000000   0.3464102   0.0000000), wk =   0.0033333
        k(  232) = (   0.1000000   0.3464102   0.0546667), wk =   0.0033333
        k(  233) = (   0.1000000   0.3464102   0.1093333), wk =   0.0033333
        k(  234) = (   0.1000000   0.3464102   0.1640000), wk =   0.0033333
        k(  235) = (   0.1000000   0.3464102   0.2186667), wk =   0.0033333
        k(  236) = (   0.1000000   0.3464102   0.2733333), wk =   0.0033333
        k(  237) = (   0.1000000   0.3464102   0.3280000), wk =   0.0033333
        k(  238) = (   0.1000000   0.3464102   0.3826667), wk =   0.0033333
        k(  239) = (   0.1000000   0.3464102   0.4373333), wk =   0.0033333
        k(  240) = (   0.1000000   0.3464102  -0.4920000), wk =   0.0033333
        k(  241) = (   0.1000000   0.4041452   0.0000000), wk =   0.0033333
        k(  242) = (   0.1000000   0.4041452   0.0546667), wk =   0.0033333
        k(  243) = (   0.1000000   0.4041452   0.1093333), wk =   0.0033333
        k(  244) = (   0.1000000   0.4041452   0.1640000), wk =   0.0033333
        k(  245) = (   0.1000000   0.4041452   0.2186667), wk =   0.0033333
        k(  246) = (   0.1000000   0.4041452   0.2733333), wk =   0.0033333
        k(  247) = (   0.1000000   0.4041452   0.3280000), wk =   0.0033333
        k(  248) = (   0.1000000   0.4041452   0.3826667), wk =   0.0033333
        k(  249) = (   0.1000000   0.4041452   0.4373333), wk =   0.0033333
        k(  250) = (   0.1000000   0.4041452  -0.4920000), wk =   0.0033333
        k(  251) = (   0.1000000   0.4618802   0.0000000), wk =   0.0033333
        k(  252) = (   0.1000000   0.4618802   0.0546667), wk =   0.0033333
        k(  253) = (   0.1000000   0.4618802   0.1093333), wk =   0.0033333
        k(  254) = (   0.1000000   0.4618802   0.1640000), wk =   0.0033333
        k(  255) = (   0.1000000   0.4618802   0.2186667), wk =   0.0033333
        k(  256) = (   0.1000000   0.4618802   0.2733333), wk =   0.0033333
        k(  257) = (   0.1000000   0.4618802   0.3280000), wk =   0.0033333
        k(  258) = (   0.1000000   0.4618802   0.3826667), wk =   0.0033333
        k(  259) = (   0.1000000   0.4618802   0.4373333), wk =   0.0033333
        k(  260) = (   0.1000000   0.4618802  -0.4920000), wk =   0.0033333
        k(  261) = (   0.1000000   0.5196152   0.0000000), wk =   0.0033333
        k(  262) = (   0.1000000   0.5196152   0.0546667), wk =   0.0033333
        k(  263) = (   0.1000000   0.5196152   0.1093333), wk =   0.0033333
        k(  264) = (   0.1000000   0.5196152   0.1640000), wk =   0.0033333
        k(  265) = (   0.1000000   0.5196152   0.2186667), wk =   0.0033333
        k(  266) = (   0.1000000   0.5196152   0.2733333), wk =   0.0033333
        k(  267) = (   0.1000000   0.5196152   0.3280000), wk =   0.0033333
        k(  268) = (   0.1000000   0.5196152   0.3826667), wk =   0.0033333
        k(  269) = (   0.1000000   0.5196152   0.4373333), wk =   0.0033333
        k(  270) = (   0.1000000   0.5196152  -0.4920000), wk =   0.0033333
        k(  271) = (   0.1000000   0.5773503   0.0000000), wk =   0.0016667
        k(  272) = (   0.1000000   0.5773503   0.0546667), wk =   0.0033333
        k(  273) = (   0.1000000   0.5773503   0.1093333), wk =   0.0033333
        k(  274) = (   0.1000000   0.5773503   0.1640000), wk =   0.0033333
        k(  275) = (   0.1000000   0.5773503   0.2186667), wk =   0.0033333
        k(  276) = (   0.1000000   0.5773503   0.2733333), wk =   0.0033333
        k(  277) = (   0.1000000   0.5773503   0.3280000), wk =   0.0033333
        k(  278) = (   0.1000000   0.5773503   0.3826667), wk =   0.0033333
        k(  279) = (   0.1000000   0.5773503   0.4373333), wk =   0.0033333
        k(  280) = (   0.1000000   0.5773503  -0.4920000), wk =   0.0016667
        k(  281) = (   0.1500000   0.2598076   0.0000000), wk =   0.0016667
        k(  282) = (   0.1500000   0.2598076   0.0546667), wk =   0.0033333
        k(  283) = (   0.1500000   0.2598076   0.1093333), wk =   0.0033333
        k(  284) = (   0.1500000   0.2598076   0.1640000), wk =   0.0033333
        k(  285) = (   0.1500000   0.2598076   0.2186667), wk =   0.0033333
        k(  286) = (   0.1500000   0.2598076   0.2733333), wk =   0.0033333
        k(  287) = (   0.1500000   0.2598076   0.3280000), wk =   0.0033333
        k(  288) = (   0.1500000   0.2598076   0.3826667), wk =   0.0033333
        k(  289) = (   0.1500000   0.2598076   0.4373333), wk =   0.0033333
        k(  290) = (   0.1500000   0.2598076  -0.4920000), wk =   0.0016667
        k(  291) = (   0.1500000   0.3175426   0.0000000), wk =   0.0033333
        k(  292) = (   0.1500000   0.3175426   0.0546667), wk =   0.0033333
        k(  293) = (   0.1500000   0.3175426   0.1093333), wk =   0.0033333
        k(  294) = (   0.1500000   0.3175426   0.1640000), wk =   0.0033333
        k(  295) = (   0.1500000   0.3175426   0.2186667), wk =   0.0033333
        k(  296) = (   0.1500000   0.3175426   0.2733333), wk =   0.0033333
        k(  297) = (   0.1500000   0.3175426   0.3280000), wk =   0.0033333
        k(  298) = (   0.1500000   0.3175426   0.3826667), wk =   0.0033333
        k(  299) = (   0.1500000   0.3175426   0.4373333), wk =   0.0033333
        k(  300) = (   0.1500000   0.3175426  -0.4920000), wk =   0.0033333
        k(  301) = (   0.1500000   0.3752777   0.0000000), wk =   0.0033333
        k(  302) = (   0.1500000   0.3752777   0.0546667), wk =   0.0033333
        k(  303) = (   0.1500000   0.3752777   0.1093333), wk =   0.0033333
        k(  304) = (   0.1500000   0.3752777   0.1640000), wk =   0.0033333
        k(  305) = (   0.1500000   0.3752777   0.2186667), wk =   0.0033333
        k(  306) = (   0.1500000   0.3752777   0.2733333), wk =   0.0033333
        k(  307) = (   0.1500000   0.3752777   0.3280000), wk =   0.0033333
        k(  308) = (   0.1500000   0.3752777   0.3826667), wk =   0.0033333
        k(  309) = (   0.1500000   0.3752777   0.4373333), wk =   0.0033333
        k(  310) = (   0.1500000   0.3752777  -0.4920000), wk =   0.0033333
        k(  311) = (   0.1500000   0.4330127   0.0000000), wk =   0.0033333
        k(  312) = (   0.1500000   0.4330127   0.0546667), wk =   0.0033333
        k(  313) = (   0.1500000   0.4330127   0.1093333), wk =   0.0033333
        k(  314) = (   0.1500000   0.4330127   0.1640000), wk =   0.0033333
        k(  315) = (   0.1500000   0.4330127   0.2186667), wk =   0.0033333
        k(  316) = (   0.1500000   0.4330127   0.2733333), wk =   0.0033333
        k(  317) = (   0.1500000   0.4330127   0.3280000), wk =   0.0033333
        k(  318) = (   0.1500000   0.4330127   0.3826667), wk =   0.0033333
        k(  319) = (   0.1500000   0.4330127   0.4373333), wk =   0.0033333
        k(  320) = (   0.1500000   0.4330127  -0.4920000), wk =   0.0033333
        k(  321) = (   0.1500000   0.4907477   0.0000000), wk =   0.0033333
        k(  322) = (   0.1500000   0.4907477   0.0546667), wk =   0.0033333
        k(  323) = (   0.1500000   0.4907477   0.1093333), wk =   0.0033333
        k(  324) = (   0.1500000   0.4907477   0.1640000), wk =   0.0033333
        k(  325) = (   0.1500000   0.4907477   0.2186667), wk =   0.0033333
        k(  326) = (   0.1500000   0.4907477   0.2733333), wk =   0.0033333
        k(  327) = (   0.1500000   0.4907477   0.3280000), wk =   0.0033333
        k(  328) = (   0.1500000   0.4907477   0.3826667), wk =   0.0033333
        k(  329) = (   0.1500000   0.4907477   0.4373333), wk =   0.0033333
        k(  330) = (   0.1500000   0.4907477  -0.4920000), wk =   0.0033333
        k(  331) = (   0.1500000   0.5484828   0.0000000), wk =   0.0033333
        k(  332) = (   0.1500000   0.5484828   0.0546667), wk =   0.0033333
        k(  333) = (   0.1500000   0.5484828   0.1093333), wk =   0.0033333
        k(  334) = (   0.1500000   0.5484828   0.1640000), wk =   0.0033333
        k(  335) = (   0.1500000   0.5484828   0.2186667), wk =   0.0033333
        k(  336) = (   0.1500000   0.5484828   0.2733333), wk =   0.0033333
        k(  337) = (   0.1500000   0.5484828   0.3280000), wk =   0.0033333
        k(  338) = (   0.1500000   0.5484828   0.3826667), wk =   0.0033333
        k(  339) = (   0.1500000   0.5484828   0.4373333), wk =   0.0033333
        k(  340) = (   0.1500000   0.5484828  -0.4920000), wk =   0.0033333
        k(  341) = (   0.2000000   0.3464102   0.0000000), wk =   0.0016667
        k(  342) = (   0.2000000   0.3464102   0.0546667), wk =   0.0033333
        k(  343) = (   0.2000000   0.3464102   0.1093333), wk =   0.0033333
        k(  344) = (   0.2000000   0.3464102   0.1640000), wk =   0.0033333
        k(  345) = (   0.2000000   0.3464102   0.2186667), wk =   0.0033333
        k(  346) = (   0.2000000   0.3464102   0.2733333), wk =   0.0033333
        k(  347) = (   0.2000000   0.3464102   0.3280000), wk =   0.0033333
        k(  348) = (   0.2000000   0.3464102   0.3826667), wk =   0.0033333
        k(  349) = (   0.2000000   0.3464102   0.4373333), wk =   0.0033333
        k(  350) = (   0.2000000   0.3464102  -0.4920000), wk =   0.0016667
        k(  351) = (   0.2000000   0.4041452   0.0000000), wk =   0.0033333
        k(  352) = (   0.2000000   0.4041452   0.0546667), wk =   0.0033333
        k(  353) = (   0.2000000   0.4041452   0.1093333), wk =   0.0033333
        k(  354) = (   0.2000000   0.4041452   0.1640000), wk =   0.0033333
        k(  355) = (   0.2000000   0.4041452   0.2186667), wk =   0.0033333
        k(  356) = (   0.2000000   0.4041452   0.2733333), wk =   0.0033333
        k(  357) = (   0.2000000   0.4041452   0.3280000), wk =   0.0033333
        k(  358) = (   0.2000000   0.4041452   0.3826667), wk =   0.0033333
        k(  359) = (   0.2000000   0.4041452   0.4373333), wk =   0.0033333
        k(  360) = (   0.2000000   0.4041452  -0.4920000), wk =   0.0033333
        k(  361) = (   0.2000000   0.4618802   0.0000000), wk =   0.0033333
        k(  362) = (   0.2000000   0.4618802   0.0546667), wk =   0.0033333
        k(  363) = (   0.2000000   0.4618802   0.1093333), wk =   0.0033333
        k(  364) = (   0.2000000   0.4618802   0.1640000), wk =   0.0033333
        k(  365) = (   0.2000000   0.4618802   0.2186667), wk =   0.0033333
        k(  366) = (   0.2000000   0.4618802   0.2733333), wk =   0.0033333
        k(  367) = (   0.2000000   0.4618802   0.3280000), wk =   0.0033333
        k(  368) = (   0.2000000   0.4618802   0.3826667), wk =   0.0033333
        k(  369) = (   0.2000000   0.4618802   0.4373333), wk =   0.0033333
        k(  370) = (   0.2000000   0.4618802  -0.4920000), wk =   0.0033333
        k(  371) = (   0.2000000   0.5196152   0.0000000), wk =   0.0033333
        k(  372) = (   0.2000000   0.5196152   0.0546667), wk =   0.0033333
        k(  373) = (   0.2000000   0.5196152   0.1093333), wk =   0.0033333
        k(  374) = (   0.2000000   0.5196152   0.1640000), wk =   0.0033333
        k(  375) = (   0.2000000   0.5196152   0.2186667), wk =   0.0033333
        k(  376) = (   0.2000000   0.5196152   0.2733333), wk =   0.0033333
        k(  377) = (   0.2000000   0.5196152   0.3280000), wk =   0.0033333
        k(  378) = (   0.2000000   0.5196152   0.3826667), wk =   0.0033333
        k(  379) = (   0.2000000   0.5196152   0.4373333), wk =   0.0033333
        k(  380) = (   0.2000000   0.5196152  -0.4920000), wk =   0.0033333
        k(  381) = (   0.2000000   0.5773503   0.0000000), wk =   0.0016667
        k(  382) = (   0.2000000   0.5773503   0.0546667), wk =   0.0033333
        k(  383) = (   0.2000000   0.5773503   0.1093333), wk =   0.0033333
        k(  384) = (   0.2000000   0.5773503   0.1640000), wk =   0.0033333
        k(  385) = (   0.2000000   0.5773503   0.2186667), wk =   0.0033333
        k(  386) = (   0.2000000   0.5773503   0.2733333), wk =   0.0033333
        k(  387) = (   0.2000000   0.5773503   0.3280000), wk =   0.0033333
        k(  388) = (   0.2000000   0.5773503   0.3826667), wk =   0.0033333
        k(  389) = (   0.2000000   0.5773503   0.4373333), wk =   0.0033333
        k(  390) = (   0.2000000   0.5773503  -0.4920000), wk =   0.0016667
        k(  391) = (   0.2500000   0.4330127   0.0000000), wk =   0.0016667
        k(  392) = (   0.2500000   0.4330127   0.0546667), wk =   0.0033333
        k(  393) = (   0.2500000   0.4330127   0.1093333), wk =   0.0033333
        k(  394) = (   0.2500000   0.4330127   0.1640000), wk =   0.0033333
        k(  395) = (   0.2500000   0.4330127   0.2186667), wk =   0.0033333
        k(  396) = (   0.2500000   0.4330127   0.2733333), wk =   0.0033333
        k(  397) = (   0.2500000   0.4330127   0.3280000), wk =   0.0033333
        k(  398) = (   0.2500000   0.4330127   0.3826667), wk =   0.0033333
        k(  399) = (   0.2500000   0.4330127   0.4373333), wk =   0.0033333
        k(  400) = (   0.2500000   0.4330127  -0.4920000), wk =   0.0016667
        k(  401) = (   0.2500000   0.4907477   0.0000000), wk =   0.0033333
        k(  402) = (   0.2500000   0.4907477   0.0546667), wk =   0.0033333
        k(  403) = (   0.2500000   0.4907477   0.1093333), wk =   0.0033333
        k(  404) = (   0.2500000   0.4907477   0.1640000), wk =   0.0033333
        k(  405) = (   0.2500000   0.4907477   0.2186667), wk =   0.0033333
        k(  406) = (   0.2500000   0.4907477   0.2733333), wk =   0.0033333
        k(  407) = (   0.2500000   0.4907477   0.3280000), wk =   0.0033333
        k(  408) = (   0.2500000   0.4907477   0.3826667), wk =   0.0033333
        k(  409) = (   0.2500000   0.4907477   0.4373333), wk =   0.0033333
        k(  410) = (   0.2500000   0.4907477  -0.4920000), wk =   0.0033333
        k(  411) = (   0.2500000   0.5484828   0.0000000), wk =   0.0033333
        k(  412) = (   0.2500000   0.5484828   0.0546667), wk =   0.0033333
        k(  413) = (   0.2500000   0.5484828   0.1093333), wk =   0.0033333
        k(  414) = (   0.2500000   0.5484828   0.1640000), wk =   0.0033333
        k(  415) = (   0.2500000   0.5484828   0.2186667), wk =   0.0033333
        k(  416) = (   0.2500000   0.5484828   0.2733333), wk =   0.0033333
        k(  417) = (   0.2500000   0.5484828   0.3280000), wk =   0.0033333
        k(  418) = (   0.2500000   0.5484828   0.3826667), wk =   0.0033333
        k(  419) = (   0.2500000   0.5484828   0.4373333), wk =   0.0033333
        k(  420) = (   0.2500000   0.5484828  -0.4920000), wk =   0.0033333
        k(  421) = (   0.3000000   0.5196152   0.0000000), wk =   0.0016667
        k(  422) = (   0.3000000   0.5196152   0.0546667), wk =   0.0033333
        k(  423) = (   0.3000000   0.5196152   0.1093333), wk =   0.0033333
        k(  424) = (   0.3000000   0.5196152   0.1640000), wk =   0.0033333
        k(  425) = (   0.3000000   0.5196152   0.2186667), wk =   0.0033333
        k(  426) = (   0.3000000   0.5196152   0.2733333), wk =   0.0033333
        k(  427) = (   0.3000000   0.5196152   0.3280000), wk =   0.0033333
        k(  428) = (   0.3000000   0.5196152   0.3826667), wk =   0.0033333
        k(  429) = (   0.3000000   0.5196152   0.4373333), wk =   0.0033333
        k(  430) = (   0.3000000   0.5196152  -0.4920000), wk =   0.0016667
        k(  431) = (   0.3000000   0.5773503   0.0000000), wk =   0.0016667
        k(  432) = (   0.3000000   0.5773503   0.0546667), wk =   0.0033333
        k(  433) = (   0.3000000   0.5773503   0.1093333), wk =   0.0033333
        k(  434) = (   0.3000000   0.5773503   0.1640000), wk =   0.0033333
        k(  435) = (   0.3000000   0.5773503   0.2186667), wk =   0.0033333
        k(  436) = (   0.3000000   0.5773503   0.2733333), wk =   0.0033333
        k(  437) = (   0.3000000   0.5773503   0.3280000), wk =   0.0033333
        k(  438) = (   0.3000000   0.5773503   0.3826667), wk =   0.0033333
        k(  439) = (   0.3000000   0.5773503   0.4373333), wk =   0.0033333
        k(  440) = (   0.3000000   0.5773503  -0.4920000), wk =   0.0016667
        k(  441) = (   0.0000000  -0.0577350   0.0546667), wk =   0.0016667
        k(  442) = (   0.0000000  -0.0577350   0.1093333), wk =   0.0016667
        k(  443) = (   0.0000000  -0.0577350   0.1640000), wk =   0.0016667
        k(  444) = (   0.0000000  -0.0577350   0.2186667), wk =   0.0016667
        k(  445) = (   0.0000000  -0.0577350   0.2733333), wk =   0.0016667
        k(  446) = (   0.0000000  -0.0577350   0.3280000), wk =   0.0016667
        k(  447) = (   0.0000000  -0.0577350   0.3826667), wk =   0.0016667
        k(  448) = (   0.0000000  -0.0577350   0.4373333), wk =   0.0016667
        k(  449) = (   0.0000000  -0.1154701   0.0546667), wk =   0.0016667
        k(  450) = (   0.0000000  -0.1154701   0.1093333), wk =   0.0016667
        k(  451) = (   0.0000000  -0.1154701   0.1640000), wk =   0.0016667
        k(  452) = (   0.0000000  -0.1154701   0.2186667), wk =   0.0016667
        k(  453) = (   0.0000000  -0.1154701   0.2733333), wk =   0.0016667
        k(  454) = (   0.0000000  -0.1154701   0.3280000), wk =   0.0016667
        k(  455) = (   0.0000000  -0.1154701   0.3826667), wk =   0.0016667
        k(  456) = (   0.0000000  -0.1154701   0.4373333), wk =   0.0016667
        k(  457) = (   0.0000000  -0.1732051   0.0546667), wk =   0.0016667
        k(  458) = (   0.0000000  -0.1732051   0.1093333), wk =   0.0016667
        k(  459) = (   0.0000000  -0.1732051   0.1640000), wk =   0.0016667
        k(  460) = (   0.0000000  -0.1732051   0.2186667), wk =   0.0016667
        k(  461) = (   0.0000000  -0.1732051   0.2733333), wk =   0.0016667
        k(  462) = (   0.0000000  -0.1732051   0.3280000), wk =   0.0016667
        k(  463) = (   0.0000000  -0.1732051   0.3826667), wk =   0.0016667
        k(  464) = (   0.0000000  -0.1732051   0.4373333), wk =   0.0016667
        k(  465) = (   0.0000000  -0.2309401   0.0546667), wk =   0.0016667
        k(  466) = (   0.0000000  -0.2309401   0.1093333), wk =   0.0016667
        k(  467) = (   0.0000000  -0.2309401   0.1640000), wk =   0.0016667
        k(  468) = (   0.0000000  -0.2309401   0.2186667), wk =   0.0016667
        k(  469) = (   0.0000000  -0.2309401   0.2733333), wk =   0.0016667
        k(  470) = (   0.0000000  -0.2309401   0.3280000), wk =   0.0016667
        k(  471) = (   0.0000000  -0.2309401   0.3826667), wk =   0.0016667
        k(  472) = (   0.0000000  -0.2309401   0.4373333), wk =   0.0016667
        k(  473) = (   0.0000000  -0.2886751   0.0546667), wk =   0.0016667
        k(  474) = (   0.0000000  -0.2886751   0.1093333), wk =   0.0016667
        k(  475) = (   0.0000000  -0.2886751   0.1640000), wk =   0.0016667
        k(  476) = (   0.0000000  -0.2886751   0.2186667), wk =   0.0016667
        k(  477) = (   0.0000000  -0.2886751   0.2733333), wk =   0.0016667
        k(  478) = (   0.0000000  -0.2886751   0.3280000), wk =   0.0016667
        k(  479) = (   0.0000000  -0.2886751   0.3826667), wk =   0.0016667
        k(  480) = (   0.0000000  -0.2886751   0.4373333), wk =   0.0016667
        k(  481) = (   0.0000000  -0.3464102   0.0546667), wk =   0.0016667
        k(  482) = (   0.0000000  -0.3464102   0.1093333), wk =   0.0016667
        k(  483) = (   0.0000000  -0.3464102   0.1640000), wk =   0.0016667
        k(  484) = (   0.0000000  -0.3464102   0.2186667), wk =   0.0016667
        k(  485) = (   0.0000000  -0.3464102   0.2733333), wk =   0.0016667
        k(  486) = (   0.0000000  -0.3464102   0.3280000), wk =   0.0016667
        k(  487) = (   0.0000000  -0.3464102   0.3826667), wk =   0.0016667
        k(  488) = (   0.0000000  -0.3464102   0.4373333), wk =   0.0016667
        k(  489) = (   0.0000000  -0.4041452   0.0546667), wk =   0.0016667
        k(  490) = (   0.0000000  -0.4041452   0.1093333), wk =   0.0016667
        k(  491) = (   0.0000000  -0.4041452   0.1640000), wk =   0.0016667
        k(  492) = (   0.0000000  -0.4041452   0.2186667), wk =   0.0016667
        k(  493) = (   0.0000000  -0.4041452   0.2733333), wk =   0.0016667
        k(  494) = (   0.0000000  -0.4041452   0.3280000), wk =   0.0016667
        k(  495) = (   0.0000000  -0.4041452   0.3826667), wk =   0.0016667
        k(  496) = (   0.0000000  -0.4041452   0.4373333), wk =   0.0016667
        k(  497) = (   0.0000000  -0.4618802   0.0546667), wk =   0.0016667
        k(  498) = (   0.0000000  -0.4618802   0.1093333), wk =   0.0016667
        k(  499) = (   0.0000000  -0.4618802   0.1640000), wk =   0.0016667
        k(  500) = (   0.0000000  -0.4618802   0.2186667), wk =   0.0016667
        k(  501) = (   0.0000000  -0.4618802   0.2733333), wk =   0.0016667
        k(  502) = (   0.0000000  -0.4618802   0.3280000), wk =   0.0016667
        k(  503) = (   0.0000000  -0.4618802   0.3826667), wk =   0.0016667
        k(  504) = (   0.0000000  -0.4618802   0.4373333), wk =   0.0016667
        k(  505) = (   0.0000000  -0.5196152   0.0546667), wk =   0.0016667
        k(  506) = (   0.0000000  -0.5196152   0.1093333), wk =   0.0016667
        k(  507) = (   0.0000000  -0.5196152   0.1640000), wk =   0.0016667
        k(  508) = (   0.0000000  -0.5196152   0.2186667), wk =   0.0016667
        k(  509) = (   0.0000000  -0.5196152   0.2733333), wk =   0.0016667
        k(  510) = (   0.0000000  -0.5196152   0.3280000), wk =   0.0016667
        k(  511) = (   0.0000000  -0.5196152   0.3826667), wk =   0.0016667
        k(  512) = (   0.0000000  -0.5196152   0.4373333), wk =   0.0016667
        k(  513) = (  -0.0500000  -0.1443376   0.0546667), wk =   0.0033333
        k(  514) = (  -0.0500000  -0.1443376   0.1093333), wk =   0.0033333
        k(  515) = (  -0.0500000  -0.1443376   0.1640000), wk =   0.0033333
        k(  516) = (  -0.0500000  -0.1443376   0.2186667), wk =   0.0033333
        k(  517) = (  -0.0500000  -0.1443376   0.2733333), wk =   0.0033333
        k(  518) = (  -0.0500000  -0.1443376   0.3280000), wk =   0.0033333
        k(  519) = (  -0.0500000  -0.1443376   0.3826667), wk =   0.0033333
        k(  520) = (  -0.0500000  -0.1443376   0.4373333), wk =   0.0033333
        k(  521) = (  -0.0500000  -0.2020726   0.0546667), wk =   0.0033333
        k(  522) = (  -0.0500000  -0.2020726   0.1093333), wk =   0.0033333
        k(  523) = (  -0.0500000  -0.2020726   0.1640000), wk =   0.0033333
        k(  524) = (  -0.0500000  -0.2020726   0.2186667), wk =   0.0033333
        k(  525) = (  -0.0500000  -0.2020726   0.2733333), wk =   0.0033333
        k(  526) = (  -0.0500000  -0.2020726   0.3280000), wk =   0.0033333
        k(  527) = (  -0.0500000  -0.2020726   0.3826667), wk =   0.0033333
        k(  528) = (  -0.0500000  -0.2020726   0.4373333), wk =   0.0033333
        k(  529) = (  -0.0500000  -0.2598076   0.0546667), wk =   0.0033333
        k(  530) = (  -0.0500000  -0.2598076   0.1093333), wk =   0.0033333
        k(  531) = (  -0.0500000  -0.2598076   0.1640000), wk =   0.0033333
        k(  532) = (  -0.0500000  -0.2598076   0.2186667), wk =   0.0033333
        k(  533) = (  -0.0500000  -0.2598076   0.2733333), wk =   0.0033333
        k(  534) = (  -0.0500000  -0.2598076   0.3280000), wk =   0.0033333
        k(  535) = (  -0.0500000  -0.2598076   0.3826667), wk =   0.0033333
        k(  536) = (  -0.0500000  -0.2598076   0.4373333), wk =   0.0033333
        k(  537) = (  -0.0500000  -0.3175426   0.0546667), wk =   0.0033333
        k(  538) = (  -0.0500000  -0.3175426   0.1093333), wk =   0.0033333
        k(  539) = (  -0.0500000  -0.3175426   0.1640000), wk =   0.0033333
        k(  540) = (  -0.0500000  -0.3175426   0.2186667), wk =   0.0033333
        k(  541) = (  -0.0500000  -0.3175426   0.2733333), wk =   0.0033333
        k(  542) = (  -0.0500000  -0.3175426   0.3280000), wk =   0.0033333
        k(  543) = (  -0.0500000  -0.3175426   0.3826667), wk =   0.0033333
        k(  544) = (  -0.0500000  -0.3175426   0.4373333), wk =   0.0033333
        k(  545) = (  -0.0500000  -0.3752777   0.0546667), wk =   0.0033333
        k(  546) = (  -0.0500000  -0.3752777   0.1093333), wk =   0.0033333
        k(  547) = (  -0.0500000  -0.3752777   0.1640000), wk =   0.0033333
        k(  548) = (  -0.0500000  -0.3752777   0.2186667), wk =   0.0033333
        k(  549) = (  -0.0500000  -0.3752777   0.2733333), wk =   0.0033333
        k(  550) = (  -0.0500000  -0.3752777   0.3280000), wk =   0.0033333
        k(  551) = (  -0.0500000  -0.3752777   0.3826667), wk =   0.0033333
        k(  552) = (  -0.0500000  -0.3752777   0.4373333), wk =   0.0033333
        k(  553) = (  -0.0500000  -0.4330127   0.0546667), wk =   0.0033333
        k(  554) = (  -0.0500000  -0.4330127   0.1093333), wk =   0.0033333
        k(  555) = (  -0.0500000  -0.4330127   0.1640000), wk =   0.0033333
        k(  556) = (  -0.0500000  -0.4330127   0.2186667), wk =   0.0033333
        k(  557) = (  -0.0500000  -0.4330127   0.2733333), wk =   0.0033333
        k(  558) = (  -0.0500000  -0.4330127   0.3280000), wk =   0.0033333
        k(  559) = (  -0.0500000  -0.4330127   0.3826667), wk =   0.0033333
        k(  560) = (  -0.0500000  -0.4330127   0.4373333), wk =   0.0033333
        k(  561) = (  -0.0500000  -0.4907477   0.0546667), wk =   0.0033333
        k(  562) = (  -0.0500000  -0.4907477   0.1093333), wk =   0.0033333
        k(  563) = (  -0.0500000  -0.4907477   0.1640000), wk =   0.0033333
        k(  564) = (  -0.0500000  -0.4907477   0.2186667), wk =   0.0033333
        k(  565) = (  -0.0500000  -0.4907477   0.2733333), wk =   0.0033333
        k(  566) = (  -0.0500000  -0.4907477   0.3280000), wk =   0.0033333
        k(  567) = (  -0.0500000  -0.4907477   0.3826667), wk =   0.0033333
        k(  568) = (  -0.0500000  -0.4907477   0.4373333), wk =   0.0033333
        k(  569) = (  -0.0500000  -0.5484828   0.0546667), wk =   0.0033333
        k(  570) = (  -0.0500000  -0.5484828   0.1093333), wk =   0.0033333
        k(  571) = (  -0.0500000  -0.5484828   0.1640000), wk =   0.0033333
        k(  572) = (  -0.0500000  -0.5484828   0.2186667), wk =   0.0033333
        k(  573) = (  -0.0500000  -0.5484828   0.2733333), wk =   0.0033333
        k(  574) = (  -0.0500000  -0.5484828   0.3280000), wk =   0.0033333
        k(  575) = (  -0.0500000  -0.5484828   0.3826667), wk =   0.0033333
        k(  576) = (  -0.0500000  -0.5484828   0.4373333), wk =   0.0033333
        k(  577) = (  -0.1000000  -0.2309401   0.0546667), wk =   0.0033333
        k(  578) = (  -0.1000000  -0.2309401   0.1093333), wk =   0.0033333
        k(  579) = (  -0.1000000  -0.2309401   0.1640000), wk =   0.0033333
        k(  580) = (  -0.1000000  -0.2309401   0.2186667), wk =   0.0033333
        k(  581) = (  -0.1000000  -0.2309401   0.2733333), wk =   0.0033333
        k(  582) = (  -0.1000000  -0.2309401   0.3280000), wk =   0.0033333
        k(  583) = (  -0.1000000  -0.2309401   0.3826667), wk =   0.0033333
        k(  584) = (  -0.1000000  -0.2309401   0.4373333), wk =   0.0033333
        k(  585) = (  -0.1000000  -0.2886751   0.0546667), wk =   0.0033333
        k(  586) = (  -0.1000000  -0.2886751   0.1093333), wk =   0.0033333
        k(  587) = (  -0.1000000  -0.2886751   0.1640000), wk =   0.0033333
        k(  588) = (  -0.1000000  -0.2886751   0.2186667), wk =   0.0033333
        k(  589) = (  -0.1000000  -0.2886751   0.2733333), wk =   0.0033333
        k(  590) = (  -0.1000000  -0.2886751   0.3280000), wk =   0.0033333
        k(  591) = (  -0.1000000  -0.2886751   0.3826667), wk =   0.0033333
        k(  592) = (  -0.1000000  -0.2886751   0.4373333), wk =   0.0033333
        k(  593) = (  -0.1000000  -0.3464102   0.0546667), wk =   0.0033333
        k(  594) = (  -0.1000000  -0.3464102   0.1093333), wk =   0.0033333
        k(  595) = (  -0.1000000  -0.3464102   0.1640000), wk =   0.0033333
        k(  596) = (  -0.1000000  -0.3464102   0.2186667), wk =   0.0033333
        k(  597) = (  -0.1000000  -0.3464102   0.2733333), wk =   0.0033333
        k(  598) = (  -0.1000000  -0.3464102   0.3280000), wk =   0.0033333
        k(  599) = (  -0.1000000  -0.3464102   0.3826667), wk =   0.0033333
        k(  600) = (  -0.1000000  -0.3464102   0.4373333), wk =   0.0033333
        k(  601) = (  -0.1000000  -0.4041452   0.0546667), wk =   0.0033333
        k(  602) = (  -0.1000000  -0.4041452   0.1093333), wk =   0.0033333
        k(  603) = (  -0.1000000  -0.4041452   0.1640000), wk =   0.0033333
        k(  604) = (  -0.1000000  -0.4041452   0.2186667), wk =   0.0033333
        k(  605) = (  -0.1000000  -0.4041452   0.2733333), wk =   0.0033333
        k(  606) = (  -0.1000000  -0.4041452   0.3280000), wk =   0.0033333
        k(  607) = (  -0.1000000  -0.4041452   0.3826667), wk =   0.0033333
        k(  608) = (  -0.1000000  -0.4041452   0.4373333), wk =   0.0033333
        k(  609) = (  -0.1000000  -0.4618802   0.0546667), wk =   0.0033333
        k(  610) = (  -0.1000000  -0.4618802   0.1093333), wk =   0.0033333
        k(  611) = (  -0.1000000  -0.4618802   0.1640000), wk =   0.0033333
        k(  612) = (  -0.1000000  -0.4618802   0.2186667), wk =   0.0033333
        k(  613) = (  -0.1000000  -0.4618802   0.2733333), wk =   0.0033333
        k(  614) = (  -0.1000000  -0.4618802   0.3280000), wk =   0.0033333
        k(  615) = (  -0.1000000  -0.4618802   0.3826667), wk =   0.0033333
        k(  616) = (  -0.1000000  -0.4618802   0.4373333), wk =   0.0033333
        k(  617) = (  -0.1000000  -0.5196152   0.0546667), wk =   0.0033333
        k(  618) = (  -0.1000000  -0.5196152   0.1093333), wk =   0.0033333
        k(  619) = (  -0.1000000  -0.5196152   0.1640000), wk =   0.0033333
        k(  620) = (  -0.1000000  -0.5196152   0.2186667), wk =   0.0033333
        k(  621) = (  -0.1000000  -0.5196152   0.2733333), wk =   0.0033333
        k(  622) = (  -0.1000000  -0.5196152   0.3280000), wk =   0.0033333
        k(  623) = (  -0.1000000  -0.5196152   0.3826667), wk =   0.0033333
        k(  624) = (  -0.1000000  -0.5196152   0.4373333), wk =   0.0033333
        k(  625) = (  -0.1500000  -0.3175426   0.0546667), wk =   0.0033333
        k(  626) = (  -0.1500000  -0.3175426   0.1093333), wk =   0.0033333
        k(  627) = (  -0.1500000  -0.3175426   0.1640000), wk =   0.0033333
        k(  628) = (  -0.1500000  -0.3175426   0.2186667), wk =   0.0033333
        k(  629) = (  -0.1500000  -0.3175426   0.2733333), wk =   0.0033333
        k(  630) = (  -0.1500000  -0.3175426   0.3280000), wk =   0.0033333
        k(  631) = (  -0.1500000  -0.3175426   0.3826667), wk =   0.0033333
        k(  632) = (  -0.1500000  -0.3175426   0.4373333), wk =   0.0033333
        k(  633) = (  -0.1500000  -0.3752777   0.0546667), wk =   0.0033333
        k(  634) = (  -0.1500000  -0.3752777   0.1093333), wk =   0.0033333
        k(  635) = (  -0.1500000  -0.3752777   0.1640000), wk =   0.0033333
        k(  636) = (  -0.1500000  -0.3752777   0.2186667), wk =   0.0033333
        k(  637) = (  -0.1500000  -0.3752777   0.2733333), wk =   0.0033333
        k(  638) = (  -0.1500000  -0.3752777   0.3280000), wk =   0.0033333
        k(  639) = (  -0.1500000  -0.3752777   0.3826667), wk =   0.0033333
        k(  640) = (  -0.1500000  -0.3752777   0.4373333), wk =   0.0033333
        k(  641) = (  -0.1500000  -0.4330127   0.0546667), wk =   0.0033333
        k(  642) = (  -0.1500000  -0.4330127   0.1093333), wk =   0.0033333
        k(  643) = (  -0.1500000  -0.4330127   0.1640000), wk =   0.0033333
        k(  644) = (  -0.1500000  -0.4330127   0.2186667), wk =   0.0033333
        k(  645) = (  -0.1500000  -0.4330127   0.2733333), wk =   0.0033333
        k(  646) = (  -0.1500000  -0.4330127   0.3280000), wk =   0.0033333
        k(  647) = (  -0.1500000  -0.4330127   0.3826667), wk =   0.0033333
        k(  648) = (  -0.1500000  -0.4330127   0.4373333), wk =   0.0033333
        k(  649) = (  -0.1500000  -0.4907477   0.0546667), wk =   0.0033333
        k(  650) = (  -0.1500000  -0.4907477   0.1093333), wk =   0.0033333
        k(  651) = (  -0.1500000  -0.4907477   0.1640000), wk =   0.0033333
        k(  652) = (  -0.1500000  -0.4907477   0.2186667), wk =   0.0033333
        k(  653) = (  -0.1500000  -0.4907477   0.2733333), wk =   0.0033333
        k(  654) = (  -0.1500000  -0.4907477   0.3280000), wk =   0.0033333
        k(  655) = (  -0.1500000  -0.4907477   0.3826667), wk =   0.0033333
        k(  656) = (  -0.1500000  -0.4907477   0.4373333), wk =   0.0033333
        k(  657) = (  -0.1500000  -0.5484828   0.0546667), wk =   0.0033333
        k(  658) = (  -0.1500000  -0.5484828   0.1093333), wk =   0.0033333
        k(  659) = (  -0.1500000  -0.5484828   0.1640000), wk =   0.0033333
        k(  660) = (  -0.1500000  -0.5484828   0.2186667), wk =   0.0033333
        k(  661) = (  -0.1500000  -0.5484828   0.2733333), wk =   0.0033333
        k(  662) = (  -0.1500000  -0.5484828   0.3280000), wk =   0.0033333
        k(  663) = (  -0.1500000  -0.5484828   0.3826667), wk =   0.0033333
        k(  664) = (  -0.1500000  -0.5484828   0.4373333), wk =   0.0033333
        k(  665) = (  -0.2000000  -0.4041452   0.0546667), wk =   0.0033333
        k(  666) = (  -0.2000000  -0.4041452   0.1093333), wk =   0.0033333
        k(  667) = (  -0.2000000  -0.4041452   0.1640000), wk =   0.0033333
        k(  668) = (  -0.2000000  -0.4041452   0.2186667), wk =   0.0033333
        k(  669) = (  -0.2000000  -0.4041452   0.2733333), wk =   0.0033333
        k(  670) = (  -0.2000000  -0.4041452   0.3280000), wk =   0.0033333
        k(  671) = (  -0.2000000  -0.4041452   0.3826667), wk =   0.0033333
        k(  672) = (  -0.2000000  -0.4041452   0.4373333), wk =   0.0033333
        k(  673) = (  -0.2000000  -0.4618802   0.0546667), wk =   0.0033333
        k(  674) = (  -0.2000000  -0.4618802   0.1093333), wk =   0.0033333
        k(  675) = (  -0.2000000  -0.4618802   0.1640000), wk =   0.0033333
        k(  676) = (  -0.2000000  -0.4618802   0.2186667), wk =   0.0033333
        k(  677) = (  -0.2000000  -0.4618802   0.2733333), wk =   0.0033333
        k(  678) = (  -0.2000000  -0.4618802   0.3280000), wk =   0.0033333
        k(  679) = (  -0.2000000  -0.4618802   0.3826667), wk =   0.0033333
        k(  680) = (  -0.2000000  -0.4618802   0.4373333), wk =   0.0033333
        k(  681) = (  -0.2000000  -0.5196152   0.0546667), wk =   0.0033333
        k(  682) = (  -0.2000000  -0.5196152   0.1093333), wk =   0.0033333
        k(  683) = (  -0.2000000  -0.5196152   0.1640000), wk =   0.0033333
        k(  684) = (  -0.2000000  -0.5196152   0.2186667), wk =   0.0033333
        k(  685) = (  -0.2000000  -0.5196152   0.2733333), wk =   0.0033333
        k(  686) = (  -0.2000000  -0.5196152   0.3280000), wk =   0.0033333
        k(  687) = (  -0.2000000  -0.5196152   0.3826667), wk =   0.0033333
        k(  688) = (  -0.2000000  -0.5196152   0.4373333), wk =   0.0033333
        k(  689) = (  -0.2500000  -0.4907477   0.0546667), wk =   0.0033333
        k(  690) = (  -0.2500000  -0.4907477   0.1093333), wk =   0.0033333
        k(  691) = (  -0.2500000  -0.4907477   0.1640000), wk =   0.0033333
        k(  692) = (  -0.2500000  -0.4907477   0.2186667), wk =   0.0033333
        k(  693) = (  -0.2500000  -0.4907477   0.2733333), wk =   0.0033333
        k(  694) = (  -0.2500000  -0.4907477   0.3280000), wk =   0.0033333
        k(  695) = (  -0.2500000  -0.4907477   0.3826667), wk =   0.0033333
        k(  696) = (  -0.2500000  -0.4907477   0.4373333), wk =   0.0033333
        k(  697) = (  -0.2500000  -0.5484828   0.0546667), wk =   0.0033333
        k(  698) = (  -0.2500000  -0.5484828   0.1093333), wk =   0.0033333
        k(  699) = (  -0.2500000  -0.5484828   0.1640000), wk =   0.0033333
        k(  700) = (  -0.2500000  -0.5484828   0.2186667), wk =   0.0033333
        k(  701) = (  -0.2500000  -0.5484828   0.2733333), wk =   0.0033333
        k(  702) = (  -0.2500000  -0.5484828   0.3280000), wk =   0.0033333
        k(  703) = (  -0.2500000  -0.5484828   0.3826667), wk =   0.0033333
        k(  704) = (  -0.2500000  -0.5484828   0.4373333), wk =   0.0033333

                       cryst. coord.
        k(    1) = (   0.0000000   0.0000000   0.0000000), wk =   0.0002778
        k(    2) = (   0.0000000   0.0000000   0.0555556), wk =   0.0005556
        k(    3) = (   0.0000000   0.0000000   0.1111111), wk =   0.0005556
        k(    4) = (   0.0000000   0.0000000   0.1666667), wk =   0.0005556
        k(    5) = (   0.0000000   0.0000000   0.2222222), wk =   0.0005556
        k(    6) = (   0.0000000   0.0000000   0.2777778), wk =   0.0005556
        k(    7) = (   0.0000000   0.0000000   0.3333333), wk =   0.0005556
        k(    8) = (   0.0000000   0.0000000   0.3888889), wk =   0.0005556
        k(    9) = (   0.0000000   0.0000000   0.4444444), wk =   0.0005556
        k(   10) = (   0.0000000   0.0000000  -0.5000000), wk =   0.0002778
        k(   11) = (   0.0000000   0.0500000   0.0000000), wk =   0.0016667
        k(   12) = (   0.0000000   0.0500000   0.0555556), wk =   0.0016667
        k(   13) = (   0.0000000   0.0500000   0.1111111), wk =   0.0016667
        k(   14) = (   0.0000000   0.0500000   0.1666667), wk =   0.0016667
        k(   15) = (   0.0000000   0.0500000   0.2222222), wk =   0.0016667
        k(   16) = (   0.0000000   0.0500000   0.2777778), wk =   0.0016667
        k(   17) = (   0.0000000   0.0500000   0.3333333), wk =   0.0016667
        k(   18) = (   0.0000000   0.0500000   0.3888889), wk =   0.0016667
        k(   19) = (   0.0000000   0.0500000   0.4444444), wk =   0.0016667
        k(   20) = (   0.0000000   0.0500000  -0.5000000), wk =   0.0016667
        k(   21) = (   0.0000000   0.1000000   0.0000000), wk =   0.0016667
        k(   22) = (   0.0000000   0.1000000   0.0555556), wk =   0.0016667
        k(   23) = (   0.0000000   0.1000000   0.1111111), wk =   0.0016667
        k(   24) = (   0.0000000   0.1000000   0.1666667), wk =   0.0016667
        k(   25) = (   0.0000000   0.1000000   0.2222222), wk =   0.0016667
        k(   26) = (   0.0000000   0.1000000   0.2777778), wk =   0.0016667
        k(   27) = (   0.0000000   0.1000000   0.3333333), wk =   0.0016667
        k(   28) = (   0.0000000   0.1000000   0.3888889), wk =   0.0016667
        k(   29) = (   0.0000000   0.1000000   0.4444444), wk =   0.0016667
        k(   30) = (   0.0000000   0.1000000  -0.5000000), wk =   0.0016667
        k(   31) = (   0.0000000   0.1500000   0.0000000), wk =   0.0016667
        k(   32) = (   0.0000000   0.1500000   0.0555556), wk =   0.0016667
        k(   33) = (   0.0000000   0.1500000   0.1111111), wk =   0.0016667
        k(   34) = (   0.0000000   0.1500000   0.1666667), wk =   0.0016667
        k(   35) = (   0.0000000   0.1500000   0.2222222), wk =   0.0016667
        k(   36) = (   0.0000000   0.1500000   0.2777778), wk =   0.0016667
        k(   37) = (   0.0000000   0.1500000   0.3333333), wk =   0.0016667
        k(   38) = (   0.0000000   0.1500000   0.3888889), wk =   0.0016667
        k(   39) = (   0.0000000   0.1500000   0.4444444), wk =   0.0016667
        k(   40) = (   0.0000000   0.1500000  -0.5000000), wk =   0.0016667
        k(   41) = (   0.0000000   0.2000000   0.0000000), wk =   0.0016667
        k(   42) = (   0.0000000   0.2000000   0.0555556), wk =   0.0016667
        k(   43) = (   0.0000000   0.2000000   0.1111111), wk =   0.0016667
        k(   44) = (   0.0000000   0.2000000   0.1666667), wk =   0.0016667
        k(   45) = (   0.0000000   0.2000000   0.2222222), wk =   0.0016667
        k(   46) = (   0.0000000   0.2000000   0.2777778), wk =   0.0016667
        k(   47) = (   0.0000000   0.2000000   0.3333333), wk =   0.0016667
        k(   48) = (   0.0000000   0.2000000   0.3888889), wk =   0.0016667
        k(   49) = (   0.0000000   0.2000000   0.4444444), wk =   0.0016667
        k(   50) = (   0.0000000   0.2000000  -0.5000000), wk =   0.0016667
        k(   51) = (   0.0000000   0.2500000   0.0000000), wk =   0.0016667
        k(   52) = (   0.0000000   0.2500000   0.0555556), wk =   0.0016667
        k(   53) = (   0.0000000   0.2500000   0.1111111), wk =   0.0016667
        k(   54) = (   0.0000000   0.2500000   0.1666667), wk =   0.0016667
        k(   55) = (   0.0000000   0.2500000   0.2222222), wk =   0.0016667
        k(   56) = (   0.0000000   0.2500000   0.2777778), wk =   0.0016667
        k(   57) = (   0.0000000   0.2500000   0.3333333), wk =   0.0016667
        k(   58) = (   0.0000000   0.2500000   0.3888889), wk =   0.0016667
        k(   59) = (   0.0000000   0.2500000   0.4444444), wk =   0.0016667
        k(   60) = (   0.0000000   0.2500000  -0.5000000), wk =   0.0016667
        k(   61) = (   0.0000000   0.3000000   0.0000000), wk =   0.0016667
        k(   62) = (   0.0000000   0.3000000   0.0555556), wk =   0.0016667
        k(   63) = (   0.0000000   0.3000000   0.1111111), wk =   0.0016667
        k(   64) = (   0.0000000   0.3000000   0.1666667), wk =   0.0016667
        k(   65) = (   0.0000000   0.3000000   0.2222222), wk =   0.0016667
        k(   66) = (   0.0000000   0.3000000   0.2777778), wk =   0.0016667
        k(   67) = (   0.0000000   0.3000000   0.3333333), wk =   0.0016667
        k(   68) = (   0.0000000   0.3000000   0.3888889), wk =   0.0016667
        k(   69) = (   0.0000000   0.3000000   0.4444444), wk =   0.0016667
        k(   70) = (   0.0000000   0.3000000  -0.5000000), wk =   0.0016667
        k(   71) = (   0.0000000   0.3500000   0.0000000), wk =   0.0016667
        k(   72) = (   0.0000000   0.3500000   0.0555556), wk =   0.0016667
        k(   73) = (   0.0000000   0.3500000   0.1111111), wk =   0.0016667
        k(   74) = (   0.0000000   0.3500000   0.1666667), wk =   0.0016667
        k(   75) = (   0.0000000   0.3500000   0.2222222), wk =   0.0016667
        k(   76) = (   0.0000000   0.3500000   0.2777778), wk =   0.0016667
        k(   77) = (   0.0000000   0.3500000   0.3333333), wk =   0.0016667
        k(   78) = (   0.0000000   0.3500000   0.3888889), wk =   0.0016667
        k(   79) = (   0.0000000   0.3500000   0.4444444), wk =   0.0016667
        k(   80) = (   0.0000000   0.3500000  -0.5000000), wk =   0.0016667
        k(   81) = (   0.0000000   0.4000000   0.0000000), wk =   0.0016667
        k(   82) = (   0.0000000   0.4000000   0.0555556), wk =   0.0016667
        k(   83) = (   0.0000000   0.4000000   0.1111111), wk =   0.0016667
        k(   84) = (   0.0000000   0.4000000   0.1666667), wk =   0.0016667
        k(   85) = (   0.0000000   0.4000000   0.2222222), wk =   0.0016667
        k(   86) = (   0.0000000   0.4000000   0.2777778), wk =   0.0016667
        k(   87) = (   0.0000000   0.4000000   0.3333333), wk =   0.0016667
        k(   88) = (   0.0000000   0.4000000   0.3888889), wk =   0.0016667
        k(   89) = (   0.0000000   0.4000000   0.4444444), wk =   0.0016667
        k(   90) = (   0.0000000   0.4000000  -0.5000000), wk =   0.0016667
        k(   91) = (   0.0000000   0.4500000   0.0000000), wk =   0.0016667
        k(   92) = (   0.0000000   0.4500000   0.0555556), wk =   0.0016667
        k(   93) = (   0.0000000   0.4500000   0.1111111), wk =   0.0016667
        k(   94) = (   0.0000000   0.4500000   0.1666667), wk =   0.0016667
        k(   95) = (   0.0000000   0.4500000   0.2222222), wk =   0.0016667
        k(   96) = (   0.0000000   0.4500000   0.2777778), wk =   0.0016667
        k(   97) = (   0.0000000   0.4500000   0.3333333), wk =   0.0016667
        k(   98) = (   0.0000000   0.4500000   0.3888889), wk =   0.0016667
        k(   99) = (   0.0000000   0.4500000   0.4444444), wk =   0.0016667
        k(  100) = (   0.0000000   0.4500000  -0.5000000), wk =   0.0016667
        k(  101) = (   0.0000000  -0.5000000   0.0000000), wk =   0.0008333
        k(  102) = (   0.0000000  -0.5000000   0.0555556), wk =   0.0016667
        k(  103) = (   0.0000000  -0.5000000   0.1111111), wk =   0.0016667
        k(  104) = (   0.0000000  -0.5000000   0.1666667), wk =   0.0016667
        k(  105) = (   0.0000000  -0.5000000   0.2222222), wk =   0.0016667
        k(  106) = (   0.0000000  -0.5000000   0.2777778), wk =   0.0016667
        k(  107) = (   0.0000000  -0.5000000   0.3333333), wk =   0.0016667
        k(  108) = (   0.0000000  -0.5000000   0.3888889), wk =   0.0016667
        k(  109) = (   0.0000000  -0.5000000   0.4444444), wk =   0.0016667
        k(  110) = (   0.0000000  -0.5000000  -0.5000000), wk =   0.0008333
        k(  111) = (   0.0500000   0.0500000   0.0000000), wk =   0.0016667
        k(  112) = (   0.0500000   0.0500000   0.0555556), wk =   0.0033333
        k(  113) = (   0.0500000   0.0500000   0.1111111), wk =   0.0033333
        k(  114) = (   0.0500000   0.0500000   0.1666667), wk =   0.0033333
        k(  115) = (   0.0500000   0.0500000   0.2222222), wk =   0.0033333
        k(  116) = (   0.0500000   0.0500000   0.2777778), wk =   0.0033333
        k(  117) = (   0.0500000   0.0500000   0.3333333), wk =   0.0033333
        k(  118) = (   0.0500000   0.0500000   0.3888889), wk =   0.0033333
        k(  119) = (   0.0500000   0.0500000   0.4444444), wk =   0.0033333
        k(  120) = (   0.0500000   0.0500000  -0.5000000), wk =   0.0016667
        k(  121) = (   0.0500000   0.1000000   0.0000000), wk =   0.0033333
        k(  122) = (   0.0500000   0.1000000   0.0555556), wk =   0.0033333
        k(  123) = (   0.0500000   0.1000000   0.1111111), wk =   0.0033333
        k(  124) = (   0.0500000   0.1000000   0.1666667), wk =   0.0033333
        k(  125) = (   0.0500000   0.1000000   0.2222222), wk =   0.0033333
        k(  126) = (   0.0500000   0.1000000   0.2777778), wk =   0.0033333
        k(  127) = (   0.0500000   0.1000000   0.3333333), wk =   0.0033333
        k(  128) = (   0.0500000   0.1000000   0.3888889), wk =   0.0033333
        k(  129) = (   0.0500000   0.1000000   0.4444444), wk =   0.0033333
        k(  130) = (   0.0500000   0.1000000  -0.5000000), wk =   0.0033333
        k(  131) = (   0.0500000   0.1500000   0.0000000), wk =   0.0033333
        k(  132) = (   0.0500000   0.1500000   0.0555556), wk =   0.0033333
        k(  133) = (   0.0500000   0.1500000   0.1111111), wk =   0.0033333
        k(  134) = (   0.0500000   0.1500000   0.1666667), wk =   0.0033333
        k(  135) = (   0.0500000   0.1500000   0.2222222), wk =   0.0033333
        k(  136) = (   0.0500000   0.1500000   0.2777778), wk =   0.0033333
        k(  137) = (   0.0500000   0.1500000   0.3333333), wk =   0.0033333
        k(  138) = (   0.0500000   0.1500000   0.3888889), wk =   0.0033333
        k(  139) = (   0.0500000   0.1500000   0.4444444), wk =   0.0033333
        k(  140) = (   0.0500000   0.1500000  -0.5000000), wk =   0.0033333
        k(  141) = (   0.0500000   0.2000000   0.0000000), wk =   0.0033333
        k(  142) = (   0.0500000   0.2000000   0.0555556), wk =   0.0033333
        k(  143) = (   0.0500000   0.2000000   0.1111111), wk =   0.0033333
        k(  144) = (   0.0500000   0.2000000   0.1666667), wk =   0.0033333
        k(  145) = (   0.0500000   0.2000000   0.2222222), wk =   0.0033333
        k(  146) = (   0.0500000   0.2000000   0.2777778), wk =   0.0033333
        k(  147) = (   0.0500000   0.2000000   0.3333333), wk =   0.0033333
        k(  148) = (   0.0500000   0.2000000   0.3888889), wk =   0.0033333
        k(  149) = (   0.0500000   0.2000000   0.4444444), wk =   0.0033333
        k(  150) = (   0.0500000   0.2000000  -0.5000000), wk =   0.0033333
        k(  151) = (   0.0500000   0.2500000   0.0000000), wk =   0.0033333
        k(  152) = (   0.0500000   0.2500000   0.0555556), wk =   0.0033333
        k(  153) = (   0.0500000   0.2500000   0.1111111), wk =   0.0033333
        k(  154) = (   0.0500000   0.2500000   0.1666667), wk =   0.0033333
        k(  155) = (   0.0500000   0.2500000   0.2222222), wk =   0.0033333
        k(  156) = (   0.0500000   0.2500000   0.2777778), wk =   0.0033333
        k(  157) = (   0.0500000   0.2500000   0.3333333), wk =   0.0033333
        k(  158) = (   0.0500000   0.2500000   0.3888889), wk =   0.0033333
        k(  159) = (   0.0500000   0.2500000   0.4444444), wk =   0.0033333
        k(  160) = (   0.0500000   0.2500000  -0.5000000), wk =   0.0033333
        k(  161) = (   0.0500000   0.3000000   0.0000000), wk =   0.0033333
        k(  162) = (   0.0500000   0.3000000   0.0555556), wk =   0.0033333
        k(  163) = (   0.0500000   0.3000000   0.1111111), wk =   0.0033333
        k(  164) = (   0.0500000   0.3000000   0.1666667), wk =   0.0033333
        k(  165) = (   0.0500000   0.3000000   0.2222222), wk =   0.0033333
        k(  166) = (   0.0500000   0.3000000   0.2777778), wk =   0.0033333
        k(  167) = (   0.0500000   0.3000000   0.3333333), wk =   0.0033333
        k(  168) = (   0.0500000   0.3000000   0.3888889), wk =   0.0033333
        k(  169) = (   0.0500000   0.3000000   0.4444444), wk =   0.0033333
        k(  170) = (   0.0500000   0.3000000  -0.5000000), wk =   0.0033333
        k(  171) = (   0.0500000   0.3500000   0.0000000), wk =   0.0033333
        k(  172) = (   0.0500000   0.3500000   0.0555556), wk =   0.0033333
        k(  173) = (   0.0500000   0.3500000   0.1111111), wk =   0.0033333
        k(  174) = (   0.0500000   0.3500000   0.1666667), wk =   0.0033333
        k(  175) = (   0.0500000   0.3500000   0.2222222), wk =   0.0033333
        k(  176) = (   0.0500000   0.3500000   0.2777778), wk =   0.0033333
        k(  177) = (   0.0500000   0.3500000   0.3333333), wk =   0.0033333
        k(  178) = (   0.0500000   0.3500000   0.3888889), wk =   0.0033333
        k(  179) = (   0.0500000   0.3500000   0.4444444), wk =   0.0033333
        k(  180) = (   0.0500000   0.3500000  -0.5000000), wk =   0.0033333
        k(  181) = (   0.0500000   0.4000000   0.0000000), wk =   0.0033333
        k(  182) = (   0.0500000   0.4000000   0.0555556), wk =   0.0033333
        k(  183) = (   0.0500000   0.4000000   0.1111111), wk =   0.0033333
        k(  184) = (   0.0500000   0.4000000   0.1666667), wk =   0.0033333
        k(  185) = (   0.0500000   0.4000000   0.2222222), wk =   0.0033333
        k(  186) = (   0.0500000   0.4000000   0.2777778), wk =   0.0033333
        k(  187) = (   0.0500000   0.4000000   0.3333333), wk =   0.0033333
        k(  188) = (   0.0500000   0.4000000   0.3888889), wk =   0.0033333
        k(  189) = (   0.0500000   0.4000000   0.4444444), wk =   0.0033333
        k(  190) = (   0.0500000   0.4000000  -0.5000000), wk =   0.0033333
        k(  191) = (   0.0500000   0.4500000   0.0000000), wk =   0.0033333
        k(  192) = (   0.0500000   0.4500000   0.0555556), wk =   0.0033333
        k(  193) = (   0.0500000   0.4500000   0.1111111), wk =   0.0033333
        k(  194) = (   0.0500000   0.4500000   0.1666667), wk =   0.0033333
        k(  195) = (   0.0500000   0.4500000   0.2222222), wk =   0.0033333
        k(  196) = (   0.0500000   0.4500000   0.2777778), wk =   0.0033333
        k(  197) = (   0.0500000   0.4500000   0.3333333), wk =   0.0033333
        k(  198) = (   0.0500000   0.4500000   0.3888889), wk =   0.0033333
        k(  199) = (   0.0500000   0.4500000   0.4444444), wk =   0.0033333
        k(  200) = (   0.0500000   0.4500000  -0.5000000), wk =   0.0033333
        k(  201) = (   0.1000000   0.1000000   0.0000000), wk =   0.0016667
        k(  202) = (   0.1000000   0.1000000   0.0555556), wk =   0.0033333
        k(  203) = (   0.1000000   0.1000000   0.1111111), wk =   0.0033333
        k(  204) = (   0.1000000   0.1000000   0.1666667), wk =   0.0033333
        k(  205) = (   0.1000000   0.1000000   0.2222222), wk =   0.0033333
        k(  206) = (   0.1000000   0.1000000   0.2777778), wk =   0.0033333
        k(  207) = (   0.1000000   0.1000000   0.3333333), wk =   0.0033333
        k(  208) = (   0.1000000   0.1000000   0.3888889), wk =   0.0033333
        k(  209) = (   0.1000000   0.1000000   0.4444444), wk =   0.0033333
        k(  210) = (   0.1000000   0.1000000  -0.5000000), wk =   0.0016667
        k(  211) = (   0.1000000   0.1500000   0.0000000), wk =   0.0033333
        k(  212) = (   0.1000000   0.1500000   0.0555556), wk =   0.0033333
        k(  213) = (   0.1000000   0.1500000   0.1111111), wk =   0.0033333
        k(  214) = (   0.1000000   0.1500000   0.1666667), wk =   0.0033333
        k(  215) = (   0.1000000   0.1500000   0.2222222), wk =   0.0033333
        k(  216) = (   0.1000000   0.1500000   0.2777778), wk =   0.0033333
        k(  217) = (   0.1000000   0.1500000   0.3333333), wk =   0.0033333
        k(  218) = (   0.1000000   0.1500000   0.3888889), wk =   0.0033333
        k(  219) = (   0.1000000   0.1500000   0.4444444), wk =   0.0033333
        k(  220) = (   0.1000000   0.1500000  -0.5000000), wk =   0.0033333
        k(  221) = (   0.1000000   0.2000000   0.0000000), wk =   0.0033333
        k(  222) = (   0.1000000   0.2000000   0.0555556), wk =   0.0033333
        k(  223) = (   0.1000000   0.2000000   0.1111111), wk =   0.0033333
        k(  224) = (   0.1000000   0.2000000   0.1666667), wk =   0.0033333
        k(  225) = (   0.1000000   0.2000000   0.2222222), wk =   0.0033333
        k(  226) = (   0.1000000   0.2000000   0.2777778), wk =   0.0033333
        k(  227) = (   0.1000000   0.2000000   0.3333333), wk =   0.0033333
        k(  228) = (   0.1000000   0.2000000   0.3888889), wk =   0.0033333
        k(  229) = (   0.1000000   0.2000000   0.4444444), wk =   0.0033333
        k(  230) = (   0.1000000   0.2000000  -0.5000000), wk =   0.0033333
        k(  231) = (   0.1000000   0.2500000   0.0000000), wk =   0.0033333
        k(  232) = (   0.1000000   0.2500000   0.0555556), wk =   0.0033333
        k(  233) = (   0.1000000   0.2500000   0.1111111), wk =   0.0033333
        k(  234) = (   0.1000000   0.2500000   0.1666667), wk =   0.0033333
        k(  235) = (   0.1000000   0.2500000   0.2222222), wk =   0.0033333
        k(  236) = (   0.1000000   0.2500000   0.2777778), wk =   0.0033333
        k(  237) = (   0.1000000   0.2500000   0.3333333), wk =   0.0033333
        k(  238) = (   0.1000000   0.2500000   0.3888889), wk =   0.0033333
        k(  239) = (   0.1000000   0.2500000   0.4444444), wk =   0.0033333
        k(  240) = (   0.1000000   0.2500000  -0.5000000), wk =   0.0033333
        k(  241) = (   0.1000000   0.3000000   0.0000000), wk =   0.0033333
        k(  242) = (   0.1000000   0.3000000   0.0555556), wk =   0.0033333
        k(  243) = (   0.1000000   0.3000000   0.1111111), wk =   0.0033333
        k(  244) = (   0.1000000   0.3000000   0.1666667), wk =   0.0033333
        k(  245) = (   0.1000000   0.3000000   0.2222222), wk =   0.0033333
        k(  246) = (   0.1000000   0.3000000   0.2777778), wk =   0.0033333
        k(  247) = (   0.1000000   0.3000000   0.3333333), wk =   0.0033333
[...]

     occupation numbers 
     1.0000   1.0000   1.0000   1.0000   1.0000   1.0000   1.0000   1.0000
     1.0000   1.0000   1.0000   1.0000   1.0000   1.0000   1.0000   1.0000
     0.0000   0.0000   0.0000   0.0000

          k =-0.2000-0.4041 0.2733 (  3614 PWs)   bands (ev):

   -15.3420 -13.6002 -13.3153 -10.2384  -9.2104  -6.3165  -6.0390  -6.0359
    -3.5918  -3.3350  -3.1395  -2.4511  -1.4778  -1.3217  -1.0001   1.9809
     4.4739   7.8851   8.2973   8.3072

     occupation numbers 
     1.0000   1.0000   1.0000   1.0000   1.0000   1.0000   1.0000   1.0000
     1.0000   1.0000   1.0000   1.0000   1.0000   1.0000   1.0000   1.0000
     0.0000   0.0000   0.0000   0.0000

          k =-0.2000-0.4041 0.3280 (  3612 PWs)   bands (ev):

   -15.3410 -13.5994 -13.3145 -10.2379  -9.2100  -6.3162  -6.0387  -6.0356
    -3.5917  -3.3572  -3.1394  -2.4509  -1.4778  -1.3407  -1.0186   1.9692
     4.4606   7.8738   8.2951   8.6616

     occupation numbers 
     1.0000   1.0000   1.0000   1.0000   1.0000   1.0000   1.0000   1.0000
     1.0000   1.0000   1.0000   1.0000   1.0000   1.0000   1.0000   1.0000
     0.0000   0.0000   0.0000   0.0000

          k =-0.2000-0.4041 0.3827 (  3614 PWs)   bands (ev):

   -15.3403 -13.5988 -13.3139 -10.2374  -9.2096  -6.3160  -6.0385  -6.0354
    -3.5916  -3.3751  -3.1393  -2.4508  -1.4777  -1.3561  -1.0335   1.9597
     4.4499   7.8646   8.2856   9.0379

     occupation numbers 
     1.0000   1.0000   1.0000   1.0000   1.0000   1.0000   1.0000   1.0000
     1.0000   1.0000   1.0000   1.0000   1.0000   1.0000   1.0000   1.0000
     0.0000   0.0000   0.0000   0.0000

          k =-0.2000-0.4041 0.4373 (  3617 PWs)   bands (ev):

   -15.3398 -13.5984 -13.3135 -10.2372  -9.2093  -6.3158  -6.0383  -6.0352
    -3.5915  -3.3866  -3.1392  -2.4508  -1.4777  -1.3661  -1.0432   1.9536
     4.4429   7.8588   8.2796   9.3594

     occupation numbers 
     1.0000   1.0000   1.0000   1.0000   1.0000   1.0000   1.0000   1.0000
     1.0000   1.0000   1.0000   1.0000   1.0000   1.0000   1.0000   1.0000
     0.0000   0.0000   0.0000   0.0000

          k =-0.2000-0.4619 0.0547 (  3604 PWs)   bands (ev):

   -15.1250 -13.9619 -13.3893 -10.2239  -8.9238  -6.4691  -5.9857  -5.3996
    -3.8650  -2.9988  -2.9778  -2.9211  -1.8040  -1.6572  -1.0088   2.1736
     4.4283   7.6968   8.1073   9.0160

     occupation numbers 
     1.0000   1.0000   1.0000   1.0000   1.0000   1.0000   1.0000   1.0000
     1.0000   1.0000   1.0000   1.0000   1.0000   1.0000   1.0000   1.0000
     0.0000   0.0000   0.0000   0.0000

          k =-0.2000-0.4619 0.1093 (  3609 PWs)   bands (ev):

   -15.1245 -13.9615 -13.3889 -10.2237  -8.9236  -6.4690  -5.9855  -5.3994
    -3.8649  -3.0109  -2.9777  -2.9211  -1.8040  -1.6680  -1.0190   2.1671
     4.4219   7.8146   8.1018   9.0037

     occupation numbers 
     1.0000   1.0000   1.0000   1.0000   1.0000   1.0000   1.0000   1.0000
     1.0000   1.0000   1.0000   1.0000   1.0000   1.0000   1.0000   1.0000
     0.0000   0.0000   0.0000   0.0000

          k =-0.2000-0.4619 0.1640 (  3605 PWs)   bands (ev):

   -15.1238 -13.9609 -13.3883 -10.2233  -8.9232  -6.4687  -5.9853  -5.3992
    -3.8647  -3.0292  -2.9776  -2.9210  -1.8039  -1.6846  -1.0346   2.1573
     4.4122   8.0068   8.0936   8.9913

     occupation numbers 
     1.0000   1.0000   1.0000   1.0000   1.0000   1.0000   1.0000   1.0000
     1.0000   1.0000   1.0000   1.0000   1.0000   1.0000   1.0000   1.0000
     0.0000   0.0000   0.0000   0.0000

          k =-0.2000-0.4619 0.2187 (  3616 PWs)   bands (ev):

   -15.1228 -13.9600 -13.3876 -10.2227  -8.9228  -6.4684  -5.9850  -5.3990
    -3.8646  -3.0515  -2.9774  -2.9209  -1.8038  -1.7047  -1.0537   2.1453
     4.4003   8.0838   8.2675   8.9796

     occupation numbers 
     1.0000   1.0000   1.0000   1.0000   1.0000   1.0000   1.0000   1.0000
     1.0000   1.0000   1.0000   1.0000   1.0000   1.0000   1.0000   1.0000
     0.0000   0.0000   0.0000   0.0000

          k =-0.2000-0.4619 0.2733 (  3612 PWs)   bands (ev):

   -15.1219 -13.9592 -13.3868 -10.2222  -8.9223  -6.4681  -5.9847  -5.3987
    -3.8644  -3.0749  -2.9773  -2.9208  -1.8037  -1.7260  -1.0737   2.1326
     4.3876   8.0736   8.5866   8.9688

     occupation numbers 
     1.0000   1.0000   1.0000   1.0000   1.0000   1.0000   1.0000   1.0000
     1.0000   1.0000   1.0000   1.0000   1.0000   1.0000   1.0000   1.0000
     0.0000   0.0000   0.0000   0.0000

          k =-0.2000-0.4619 0.3280 (  3610 PWs)   bands (ev):

   -15.1210 -13.9584 -13.3860 -10.2217  -8.9219  -6.4678  -5.9844  -5.3985
    -3.8642  -3.0967  -2.9771  -2.9207  -1.8036  -1.7457  -1.0924   2.1207
     4.3759   8.0642   8.9480   8.9595

     occupation numbers 
     1.0000   1.0000   1.0000   1.0000   1.0000   1.0000   1.0000   1.0000
     1.0000   1.0000   1.0000   1.0000   1.0000   1.0000   1.0000   1.0000
     0.0000   0.0000   0.0000   0.0000

          k =-0.2000-0.4619 0.3827 (  3611 PWs)   bands (ev):

   -15.1202 -13.9577 -13.3854 -10.2213  -8.9216  -6.4676  -5.9842  -5.3982
    -3.8641  -3.1143  -2.9770  -2.9206  -1.8035  -1.7617  -1.1075   2.1111
     4.3664   8.0567   8.9522   9.3207

     occupation numbers 
     1.0000   1.0000   1.0000   1.0000   1.0000   1.0000   1.0000   1.0000
     1.0000   1.0000   1.0000   1.0000   1.0000   1.0000   1.0000   1.0000
     0.0000   0.0000   0.0000   0.0000

          k =-0.2000-0.4619 0.4373 (  3611 PWs)   bands (ev):

   -15.1198 -13.9573 -13.3850 -10.2210  -8.9213  -6.4674  -5.9841  -5.3981
    -3.8640  -3.1257  -2.9770  -2.9205  -1.8035  -1.7720  -1.1173   2.1048
     4.3602   8.0518   8.9476   9.6386

     occupation numbers 
     1.0000   1.0000   1.0000   1.0000   1.0000   1.0000   1.0000   1.0000
     1.0000   1.0000   1.0000   1.0000   1.0000   1.0000   1.0000   1.0000
     0.0000   0.0000   0.0000   0.0000

          k =-0.2000-0.5196 0.0547 (  3608 PWs)   bands (ev):

   -14.8762 -14.2942 -13.4323 -10.2298  -8.6517  -6.8119  -5.7205  -4.7667
    -4.0979  -3.5460  -2.7079  -2.6765  -2.1156  -2.0351  -1.0528   2.2708
     4.3714   8.0318   8.2227   8.8175

     occupation numbers 
     1.0000   1.0000   1.0000   1.0000   1.0000   1.0000   1.0000   1.0000
     1.0000   1.0000   1.0000   1.0000   1.0000   1.0000   1.0000   1.0001
     0.0000   0.0000   0.0000   0.0000

          k =-0.2000-0.5196 0.1093 (  3612 PWs)   bands (ev):

   -14.8758 -14.2938 -13.4319 -10.2296  -8.6515  -6.8117  -5.7204  -4.7666
    -4.0978  -3.5460  -2.7197  -2.6765  -2.1155  -2.0464  -1.0631   2.2642
     4.3656   8.1485   8.2182   8.9288

     occupation numbers 
     1.0000   1.0000   1.0000   1.0000   1.0000   1.0000   1.0000   1.0000
     1.0000   1.0000   1.0000   1.0000   1.0000   1.0000   1.0000   1.0001
     0.0000   0.0000   0.0000   0.0000

          k =-0.2000-0.5196 0.1640 (  3610 PWs)   bands (ev):

   -14.8750 -14.2931 -13.4313 -10.2291  -8.6511  -6.8115  -5.7202  -4.7664
    -4.0976  -3.5458  -2.7377  -2.6764  -2.1154  -2.0634  -1.0788   2.2541
     4.3568   8.2116   8.3389   9.1077

     occupation numbers 
     1.0000   1.0000   1.0000   1.0000   1.0000   1.0000   1.0000   1.0000
     1.0000   1.0000   1.0000   1.0000   1.0000   1.0000   1.0000   1.0001
     0.0000   0.0000   0.0000   0.0000

          k =-0.2000-0.5196 0.2187 (  3614 PWs)   bands (ev):

   -14.8741 -14.2923 -13.4306 -10.2286  -8.6507  -6.8112  -5.7199  -4.7662
    -4.0974  -3.5457  -2.7595  -2.6762  -2.1153  -2.0842  -1.0980   2.2418
     4.3461   8.2034   8.5969   9.3362

     occupation numbers 
     1.0000   1.0000   1.0000   1.0000   1.0000   1.0000   1.0000   1.0000
     1.0000   1.0000   1.0000   1.0000   1.0000   1.0000   1.0000   1.0001
     0.0000   0.0000   0.0000   0.0000

          k =-0.2000-0.5196 0.2733 (  3607 PWs)   bands (ev):

   -14.8732 -14.2914 -13.4297 -10.2281  -8.6503  -6.8108  -5.7196  -4.7659
    -4.0972  -3.5455  -2.7825  -2.6761  -2.1152  -2.1061  -1.1181   2.2288
     4.3347   8.1949   8.9125   9.5322

     occupation numbers 
     1.0000   1.0000   1.0000   1.0000   1.0000   1.0000   1.0000   1.0000
     1.0000   1.0000   1.0000   1.0000   1.0000   1.0000   1.0000   1.0001
     0.0000   0.0000   0.0000   0.0000

          k =-0.2000-0.5196 0.3280 (  3612 PWs)   bands (ev):

   -14.8723 -14.2906 -13.4290 -10.2276  -8.6499  -6.8105  -5.7194  -4.7657
    -4.0970  -3.5453  -2.8039  -2.6760  -2.1265  -2.1151  -1.1369   2.2167
     4.3241   8.1870   9.2691   9.5903

     occupation numbers 
     1.0000   1.0000   1.0000   1.0000   1.0000   1.0000   1.0000   1.0000
     1.0000   1.0000   1.0000   1.0000   1.0000   1.0000   1.0000   1.0000
     0.0000   0.0000   0.0000   0.0000

          k =-0.2000-0.5196 0.3827 (  3617 PWs)   bands (ev):

   -14.8716 -14.2899 -13.4283 -10.2271  -8.6496  -6.8102  -5.7192  -4.7655
    -4.0969  -3.5452  -2.8212  -2.6759  -2.1430  -2.1151  -1.1521   2.2068
     4.3155   8.1806   9.6007   9.6353

     occupation numbers 
     1.0000   1.0000   1.0000   1.0000   1.0000   1.0000   1.0000   1.0000
     1.0000   1.0000   1.0000   1.0000   1.0000   1.0000   1.0000   1.0000
     0.0000   0.0000   0.0000   0.0000

          k =-0.2000-0.5196 0.4373 (  3609 PWs)   bands (ev):

   -14.8711 -14.2894 -13.4279 -10.2268  -8.6493  -6.8101  -5.7190  -4.7654
    -4.0968  -3.5451  -2.8324  -2.6759  -2.1536  -2.1150  -1.1620   2.2004
     4.3099   8.1764   9.6025   9.9449

     occupation numbers 
     1.0000   1.0000   1.0000   1.0000   1.0000   1.0000   1.0000   1.0000
     1.0000   1.0000   1.0000   1.0000   1.0000   1.0000   1.0000   1.0000
     0.0000   0.0000   0.0000   0.0000

          k =-0.2500-0.4907 0.0547 (  3609 PWs)   bands (ev):

   -14.9055 -14.0342 -13.7468  -9.8657  -9.0028  -6.8890  -5.4001  -5.0846
    -3.6122  -3.3826  -3.1308  -2.7417  -2.2063  -1.7365  -1.4085   2.5440
     4.0930   7.9928   8.7241   9.1605

     occupation numbers 
     1.0000   1.0000   1.0000   1.0000   1.0000   1.0000   1.0000   1.0000
     1.0000   1.0000   1.0000   1.0000   1.0000   1.0000   1.0000   1.0109
     0.0000   0.0000   0.0000   0.0000

          k =-0.2500-0.4907 0.1093 (  3600 PWs)   bands (ev):

   -14.9050 -14.0338 -13.7463  -9.8654  -9.0026  -6.8888  -5.3999  -5.0845
    -3.6121  -3.3826  -3.1307  -2.7535  -2.2062  -1.7475  -1.4192   2.5378
     4.0869   8.1097   8.7190   9.1843

     occupation numbers 
     1.0000   1.0000   1.0000   1.0000   1.0000   1.0000   1.0000   1.0000
     1.0000   1.0000   1.0000   1.0000   1.0000   1.0000   1.0000   1.0101
     0.0000   0.0000   0.0000   0.0000

          k =-0.2500-0.4907 0.1640 (  3611 PWs)   bands (ev):

   -14.9043 -14.0331 -13.7457  -9.8650  -9.0023  -6.8886  -5.3997  -5.0843
    -3.6119  -3.3825  -3.1307  -2.7715  -2.2061  -1.7642  -1.4354   2.5284
     4.0776   8.3006   8.7115   9.1835

     occupation numbers 
     1.0000   1.0000   1.0000   1.0000   1.0000   1.0000   1.0000   1.0000
     1.0000   1.0000   1.0000   1.0000   1.0000   1.0000   1.0000   1.0090
     0.0000   0.0000   0.0000   0.0000

          k =-0.2500-0.4907 0.2187 (  3609 PWs)   bands (ev):

   -14.9034 -14.0323 -13.7449  -9.8645  -9.0018  -6.8882  -5.3995  -5.0841
    -3.6118  -3.3823  -3.1305  -2.7934  -2.2060  -1.7844  -1.4551   2.5169
     4.0663   8.5593   8.7029   9.1777

     occupation numbers 
     1.0000   1.0000   1.0000   1.0000   1.0000   1.0000   1.0000   1.0000
     1.0000   1.0000   1.0000   1.0000   1.0000   1.0000   1.0000   1.0078
     0.0000   0.0000   0.0000   0.0000

          k =-0.2500-0.4907 0.2733 (  3614 PWs)   bands (ev):

   -14.9025 -14.0315 -13.7441  -9.8640  -9.0014  -6.8879  -5.3992  -5.0839
    -3.6116  -3.3821  -3.1304  -2.8165  -2.2059  -1.8058  -1.4760   2.5048
     4.0543   8.6940   8.8759   9.1706

     occupation numbers 
     1.0000   1.0000   1.0000   1.0000   1.0000   1.0000   1.0000   1.0000
     1.0000   1.0000   1.0000   1.0000   1.0000   1.0000   1.0000   1.0066
     0.0000   0.0000   0.0000   0.0000

          k =-0.2500-0.4907 0.3280 (  3613 PWs)   bands (ev):

   -14.9016 -14.0306 -13.7433  -9.8635  -9.0010  -6.8876  -5.3990  -5.0836
    -3.6115  -3.3820  -3.1302  -2.8379  -2.2058  -1.8257  -1.4953   2.4934
     4.0430   8.6859   9.1637   9.2342

     occupation numbers 
     1.0000   1.0000   1.0000   1.0000   1.0000   1.0000   1.0000   1.0000
     1.0000   1.0000   1.0000   1.0000   1.0000   1.0000   1.0000   1.0057
     0.0000   0.0000   0.0000   0.0000

          k =-0.2500-0.4907 0.3827 (  3619 PWs)   bands (ev):

   -14.9009 -14.0300 -13.7426  -9.8631  -9.0006  -6.8873  -5.3988  -5.0834
    -3.6113  -3.3819  -3.1301  -2.8552  -2.2057  -1.8418  -1.5110   2.4841
     4.0339   8.6794   9.1580   9.6034

     occupation numbers 
     1.0000   1.0000   1.0000   1.0000   1.0000   1.0000   1.0000   1.0000
     1.0000   1.0000   1.0000   1.0000   1.0000   1.0000   1.0000   1.0050
     0.0000   0.0000   0.0000   0.0000

          k =-0.2500-0.4907 0.4373 (  3622 PWs)   bands (ev):

   -14.9004 -14.0295 -13.7422  -9.8629  -9.0004  -6.8871  -5.3987  -5.0833
    -3.6112  -3.3818  -3.1301  -2.8665  -2.2057  -1.8523  -1.5212   2.4781
     4.0280   8.6752   9.1542   9.9177

     occupation numbers 
     1.0000   1.0000   1.0000   1.0000   1.0000   1.0000   1.0000   1.0000
     1.0000   1.0000   1.0000   1.0000   1.0000   1.0000   1.0000   1.0046
     0.0000   0.0000   0.0000   0.0000

          k =-0.2500-0.5485 0.0547 (  3605 PWs)   bands (ev):

   -14.6429 -14.3523 -13.7756  -9.8252  -8.8444  -7.1425  -5.2066  -4.4874
    -3.9165  -3.7762  -2.8534  -2.5447  -2.4360  -2.1003  -1.4393   2.6904
     3.9689   8.3473   8.7403   8.8051

     occupation numbers 
     1.0000   1.0000   1.0000   1.0000   1.0000   1.0000   1.0000   1.0000
     1.0000   1.0000   1.0000   1.0000   1.0000   1.0000   1.0000   1.0460
     0.0000   0.0000   0.0000   0.0000

          k =-0.2500-0.5485 0.1093 (  3608 PWs)   bands (ev):

   -14.6425 -14.3519 -13.7752  -9.8250  -8.8441  -7.1423  -5.2065  -4.4873
    -3.9164  -3.7761  -2.8534  -2.5446  -2.4476  -2.1116  -1.4500   2.6841
     3.9632   8.4629   8.8012   8.8539

     occupation numbers 
     1.0000   1.0000   1.0000   1.0000   1.0000   1.0000   1.0000   1.0000
     1.0000   1.0000   1.0000   1.0000   1.0000   1.0000   1.0000   1.0439
     0.0000   0.0000   0.0000   0.0000

          k =-0.2500-0.5485 0.1640 (  3604 PWs)   bands (ev):

   -14.6417 -14.3512 -13.7745  -9.8246  -8.8438  -7.1420  -5.2063  -4.4871
    -3.9162  -3.7760  -2.8533  -2.5445  -2.4652  -2.1288  -1.4663   2.6746
     3.9544   8.6517   8.7952   9.0388

     occupation numbers 
     1.0000   1.0000   1.0000   1.0000   1.0000   1.0000   1.0000   1.0000
     1.0000   1.0000   1.0000   1.0000   1.0000   1.0000   1.0000   1.0408
     0.0000   0.0000   0.0000   0.0000

          k =-0.2500-0.5485 0.2187 (  3615 PWs)   bands (ev):

   -14.6409 -14.3504 -13.7738  -9.8241  -8.8434  -7.1417  -5.2061  -4.4869
    -3.9161  -3.7758  -2.8532  -2.5444  -2.4867  -2.1497  -1.4861   2.6629
     3.9438   8.7880   8.9074   9.2866

     occupation numbers 
     1.0000   1.0000   1.0000   1.0000   1.0000   1.0000   1.0000   1.0000
     1.0000   1.0000   1.0000   1.0000   1.0000   1.0000   1.0000   1.0371
     0.0000   0.0000   0.0000   0.0000

          k =-0.2500-0.5485 0.2733 (  3619 PWs)   bands (ev):

   -14.6400 -14.3495 -13.7729  -9.8236  -8.8430  -7.1413  -5.2058  -4.4867
    -3.9159  -3.7756  -2.8530  -2.5443  -2.5092  -2.1717  -1.5070   2.6506
     3.9325   8.7805   9.2197   9.5749

     occupation numbers 
     1.0000   1.0000   1.0000   1.0000   1.0000   1.0000   1.0000   1.0000
     1.0000   1.0000   1.0000   1.0000   1.0000   1.0000   1.0000   1.0334
     0.0000   0.0000   0.0000   0.0000

          k =-0.2500-0.5485 0.3280 (  3617 PWs)   bands (ev):

   -14.6391 -14.3486 -13.7721  -9.8231  -8.8425  -7.1409  -5.2056  -4.4865
    -3.9157  -3.7754  -2.8529  -2.5442  -2.5302  -2.1922  -1.5264   2.6391
     3.9219   8.7734   9.5718   9.7597

     occupation numbers 
     1.0000   1.0000   1.0000   1.0000   1.0000   1.0000   1.0000   1.0000
     1.0000   1.0000   1.0000   1.0000   1.0000   1.0000   1.0000   1.0302
     0.0000   0.0000   0.0000   0.0000

          k =-0.2500-0.5485 0.3827 (  3624 PWs)   bands (ev):

   -14.6384 -14.3480 -13.7715  -9.8227  -8.8422  -7.1407  -5.2054  -4.4864
    -3.9155  -3.7753  -2.8528  -2.5473  -2.5440  -2.2088  -1.5422   2.6298
     3.9134   8.7676   9.7825   9.9299

     occupation numbers 
     1.0000   1.0000   1.0000   1.0000   1.0000   1.0000   1.0000   1.0000
     1.0000   1.0000   1.0000   1.0000   1.0000   1.0000   1.0000   1.0277
     0.0000   0.0000   0.0000   0.0000

          k =-0.2500-0.5485 0.4373 (  3618 PWs)   bands (ev):

   -14.6379 -14.3475 -13.7710  -9.8224  -8.8420  -7.1405  -5.2053  -4.4862
    -3.9154  -3.7752  -2.8527  -2.5582  -2.5440  -2.2195  -1.5524   2.6237
     3.9078   8.7639   9.7850  10.2156

     occupation numbers 
     1.0000   1.0000   1.0000   1.0000   1.0000   1.0000   1.0000   1.0000
     1.0000   1.0000   1.0000   1.0000   1.0000   1.0000   1.0000   1.0261
     0.0000   0.0000   0.0000   0.0000

     the Fermi energy is     3.2202 ev
     (compare with:     3.4355 eV, computed in scf)

     Writing all to output data dir ./out/aiida.save/ :
     XML data file, pseudopotentials, collected wavefunctions

     init_run     :      1.03s CPU      1.04s WALL (       1 calls)
     electrons    :   2558.38s CPU    849.68s WALL (       1 calls)

     Called by init_run:
     wfcinit      :      0.00s CPU      0.00s WALL (       1 calls)
     wfcinit:atom :      2.19s CPU      0.87s WALL (     704 calls)
     wfcinit:wfcr :    138.26s CPU     48.90s WALL (     704 calls)
     potinit      :      0.40s CPU      0.41s WALL (       1 calls)
     hinit0       :      0.39s CPU      0.39s WALL (       1 calls)

     Called by electrons:
     c_bands      :   2558.25s CPU    849.63s WALL (       1 calls)
     v_of_rho     :      0.05s CPU      0.06s WALL (       1 calls)
     v_h          :      0.00s CPU      0.00s WALL (       1 calls)
     v_xc         :      0.05s CPU      0.06s WALL (       1 calls)
     newd         :      0.05s CPU      0.05s WALL (       1 calls)
     PAW_pot      :      0.14s CPU      0.14s WALL (       1 calls)

     Called by c_bands:
     init_us_2    :      3.16s CPU      1.37s WALL (     704 calls)
     cegterg      :   2383.25s CPU    786.78s WALL (    1681 calls)

     Called by sum_band:

     Called by *egterg:
     cdiaghg      :     71.89s CPU     21.11s WALL (   26913 calls)
     cegterg:over :    114.27s CPU     13.37s WALL (   26209 calls)
     cegterg:upda :     45.91s CPU      7.94s WALL (   26209 calls)
     cegterg:last :    108.04s CPU     13.17s WALL (   15888 calls)
     h_psi        :   2070.63s CPU    759.61s WALL (   28594 calls)
     s_psi        :     38.37s CPU      5.78s WALL (   28594 calls)
     g_psi        :     29.49s CPU      6.63s WALL (   26209 calls)

     Called by h_psi:
     h_psi:calbec :     59.02s CPU      9.24s WALL (   28594 calls)
     vloc_psi     :   1964.04s CPU    741.03s WALL (   28594 calls)
     add_vuspsi   :     38.21s CPU      6.53s WALL (   28594 calls)

     General routines
     calbec       :     58.65s CPU      9.15s WALL (   28594 calls)
     fft          :      0.29s CPU      0.29s WALL (      13 calls)
     ffts         :      0.20s CPU      0.20s WALL (       1 calls)
     fftw         :   1580.10s CPU    614.31s WALL (  716250 calls)
     interpolate  :      0.20s CPU      0.20s WALL (       1 calls)
     davcio       :      2.29s CPU      0.69s WALL (    1408 calls)

     Parallel routines

     PAW routines
     PAW_pot      :      0.14s CPU      0.14s WALL (       1 calls)

     PWSCF        :  42m39.79s CPU  14m11.35s WALL


   This run was terminated on:  17:33:32   5Dec2024            

=------------------------------------------------------------------------------=
   JOB DONE.
=------------------------------------------------------------------------------=
