
     Program PWSCF v.7.3.1 starts on  7Dec2024 at 23: 3:46 

     This program is part of the open-source Quantum ESPRESSO suite
     for quantum simulation of materials; please cite
         "P. Giannozzi et al., J. Phys.:Condens. Matter 21 395502 (2009);
         "P. Giannozzi et al., J. Phys.:Condens. Matter 29 465901 (2017);
         "P. Giannozzi et al., J. Chem. Phys. 152 154105 (2020);
          URL http://www.quantum-espresso.org", 
     in publications or presentations arising from this work. More details at
     http://www.quantum-espresso.org/quote

     Parallel version (MPI), running on     1 processors

     MPI processes distributed on     1 nodes
     22334 MiB available memory on the printing compute node when the environment starts

     Waiting for input...
     Reading input from standard input

     Current dimensions of program PWSCF are:
     Max number of different atomic species (ntypx) = 10
     Max number of k-points (npk) =  40000
     Max angular momentum in pseudopotentials (lmaxx) =  4
     file C.pbesol-n-kjpaw_psl.1.0.0.UPF: wavefunction(s)  2S 2P renormalized

     Atomic positions and unit cell read from directory:
     ./out/aiida.save/

     Found identity + (  0.0000 -0.5000  0.0000) symmetry
     This is a supercell, fractional translations are disabled

     Subspace diagonalization in iterative solution of the eigenvalue problem:
     a serial algorithm will be used


     G-vector sticks info
     --------------------
     sticks:   dense  smooth     PW     G-vecs:    dense   smooth      PW
     Sum        2149    1069    313                81561    28841    4365

     Using Slab Decomposition



     bravais-lattice index     =            0
     lattice parameter (alat)  =       9.2975  a.u.
     unit-cell volume          =     707.3387 (a.u.)^3
     number of atoms/cell      =            8
     number of atomic types    =            1
     number of electrons       =        32.00
     number of Kohn-Sham states=           20
     kinetic-energy cutoff     =      45.0000  Ry
     charge density cutoff     =     360.0000  Ry
     Exchange-correlation= SLA  PW   PSX  PSC
                           (   1   4  10   8   0   0   0)

     celldm(1)=   9.297453  celldm(2)=   0.000000  celldm(3)=   0.000000
     celldm(4)=   0.000000  celldm(5)=   0.000000  celldm(6)=   0.000000

     crystal axes: (cart. coord. in units of alat)
               a(1) = (   1.000000   0.000000   0.000000 )  
               a(2) = (  -0.500000   0.866025   0.000000 )  
               a(3) = (   0.000000   0.000000   1.016260 )  

     reciprocal axes: (cart. coord. in units 2 pi/alat)
               b(1) = (  1.000000  0.577350 -0.000000 )  
               b(2) = (  0.000000  1.154701  0.000000 )  
               b(3) = (  0.000000 -0.000000  0.984000 )  


     PseudoPot. # 1 for C  read from file:
     ./C.pbesol-n-kjpaw_psl.1.0.0.UPF
     MD5 check sum: f9b2fe17d1f478429498b05d17159f9e
     Pseudo is Projector augmented-wave + core cor, Zval =  4.0
     Generated using &quot;atomic&quot; code by A. Dal Corso  v.6.3
     Shape of augmentation charge: PSQ
     Using radial grid of 1073 points,  4 beta functions with: 
                l(1) =   0
                l(2) =   0
                l(3) =   1
                l(4) =   1
     Q(r) pseudized with 0 coefficients 


     atomic species   valence    mass     pseudopotential
     C                 4.00    12.01070     C ( 1.00)

     No symmetry found


                                    s                        frac. trans.

      isym =  1     identity                                     

 cryst.   s( 1) = (     1          0          0      )
                  (     0          1          0      )
                  (     0          0          1      )

 cart.    s( 1) = (  1.0000000  0.0000000  0.0000000 )
                  (  0.0000000  1.0000000  0.0000000 )
                  (  0.0000000  0.0000000  1.0000000 )


   Cartesian axes

     site n.     atom                  positions (alat units)
         1        C      tau(   1) = (   0.0000000   0.0000000   0.2540650  )
         2        C      tau(   2) = (  -0.2500000   0.4330127   0.2540650  )
         3        C      tau(   3) = (   0.5000000   0.0000000   0.2540650  )
         4        C      tau(   4) = (   0.2500000   0.4330127   0.2540650  )
         5        C      tau(   5) = (  -0.0000005   0.2886748   0.2540650  )
         6        C      tau(   6) = (  -0.2500005   0.7216875   0.2540650  )
         7        C      tau(   7) = (   0.4999995   0.2886748   0.2540650  )
         8        C      tau(   8) = (   0.2499995   0.7216875   0.2540650  )

   Crystallographic axes

     site n.     atom                  positions (cryst. coord.)
         1        C      tau(   1) = (  0.0000000  0.0000000  0.2500000  )
         2        C      tau(   2) = (  0.0000000  0.5000000  0.2500000  )
         3        C      tau(   3) = (  0.5000000  0.0000000  0.2500000  )
         4        C      tau(   4) = (  0.5000000  0.5000000  0.2500000  )
         5        C      tau(   5) = (  0.1666660  0.3333330  0.2500000  )
         6        C      tau(   6) = (  0.1666660  0.8333330  0.2500000  )
         7        C      tau(   7) = (  0.6666660  0.3333330  0.2500000  )
         8        C      tau(   8) = (  0.6666660  0.8333330  0.2500000  )

     number of k points=     4  Marzari-Vanderbilt smearing, width (Ry)=  0.0200
                       cart. coord. in units 2pi/alat
        k(    1) = (   0.0000000   0.0000000   0.0000000), wk =   0.5000000
        k(    2) = (   0.5000000   0.2886751   0.0000000), wk =   0.5000000
        k(    3) = (   0.3333330   0.5773497   0.0000000), wk =   0.5000000
        k(    4) = (   0.0000000   0.0000000   0.0000000), wk =   0.5000000

                       cryst. coord.
        k(    1) = (   0.0000000   0.0000000   0.0000000), wk =   0.5000000
        k(    2) = (   0.5000000   0.0000000   0.0000000), wk =   0.5000000
        k(    3) = (   0.3333330   0.3333330   0.0000000), wk =   0.5000000
        k(    4) = (   0.0000000   0.0000000   0.0000000), wk =   0.5000000

     Dense  grid:    81561 G-vectors     FFT dimensions: (  60,  60,  60)

     Smooth grid:    28841 G-vectors     FFT dimensions: (  40,  40,  45)

     Dynamical RAM for                 wfc:       1.10 MB

     Dynamical RAM for     wfc (w. buffer):       1.10 MB

     Dynamical RAM for           str. fact:       1.24 MB

     Dynamical RAM for           local pot:       0.00 MB

     Dynamical RAM for          nlocal pot:       3.52 MB

     Dynamical RAM for                qrad:       0.44 MB

     Dynamical RAM for          rho,v,vnew:       8.68 MB

     Dynamical RAM for           G-vectors:       4.89 MB

     Dynamical RAM for          h,s,v(r/c):       0.07 MB

     Dynamical RAM for          <psi|beta>:       0.02 MB

     Dynamical RAM for                 psi:       2.20 MB

     Dynamical RAM for                hpsi:       2.20 MB

     Dynamical RAM for                spsi:       2.20 MB

     Dynamical RAM for      wfcinit/wfcrot:       3.55 MB

     Dynamical RAM for           addusdens:      63.47 MB

     Estimated static dynamical RAM per process >      30.59 MB

     Estimated max dynamical RAM per process >      94.07 MB

     Check: negative core charge=   -0.000009

     The potential is recalculated from file :
     ./out/aiida.save/charge-density

     Starting wfcs are   32 randomized atomic wfcs
     Checking if some PAW data can be deallocated... 

     Band Structure Calculation
     Davidson diagonalization with overlap

     Computing kpt #:     1  of     4
     total cpu time spent up to now is        2.1 secs

     Computing kpt #:     2  of     4
     total cpu time spent up to now is        3.4 secs

     Computing kpt #:     3  of     4
     total cpu time spent up to now is        4.7 secs

     Computing kpt #:     4  of     4
     total cpu time spent up to now is        5.7 secs

     ethr =  5.00E-12,  avg # of iterations = 36.2

     total cpu time spent up to now is        5.7 secs

     End of band structure calculation

          k = 0.0000 0.0000 0.0000 (  3573 PWs)   bands (ev):

   -16.2466 -10.9382 -10.9382 -10.9382  -9.9896  -9.9896  -9.9896  -4.3236
    -3.1263  -3.1263  -3.1263   0.2957   0.2958   0.9627   0.9627   0.9627
     5.0341   5.0341   5.0342   6.1558

          k = 0.5000 0.2887 0.0000 (  3608 PWs)   bands (ev):

   -14.7739 -14.7739 -11.9374 -11.9374  -7.1980  -7.1980  -5.7119  -5.7119
    -4.1110  -4.1110  -2.5866  -2.5866  -1.7432  -1.7432   0.5835   0.5835
     6.1694   6.1694   8.1284   8.1284

          k = 0.3333 0.5773 0.0000 (  3612 PWs)   bands (ev):

   -14.2898 -14.2898 -14.2898  -9.2610  -9.2610  -7.3602  -4.4356  -4.4355
    -4.4355  -3.1344  -3.1344  -3.1343  -2.0232  -2.0232  -2.0232   3.3372
     3.3372   8.7877   8.7877   8.7877

          k = 0.0000 0.0000 0.0000 (  3573 PWs)   bands (ev):

   -16.2466 -10.9382 -10.9382 -10.9382  -9.9896  -9.9896  -9.9896  -4.3236
    -3.1263  -3.1263  -3.1263   0.2957   0.2958   0.9627   0.9627   0.9627
     5.0341   5.0341   5.0342   6.1558

     Writing all to output data dir ./out/aiida.save/ :
     XML data file, pseudopotentials, collected wavefunctions

     init_run     :      0.86s CPU      0.88s WALL (       1 calls)
     electrons    :     14.23s CPU      4.75s WALL (       1 calls)

     Called by init_run:
     wfcinit      :      0.00s CPU      0.00s WALL (       1 calls)
     wfcinit:atom :      0.01s CPU      0.00s WALL (       4 calls)
     wfcinit:wfcr :      0.91s CPU      0.39s WALL (       4 calls)
     potinit      :      0.40s CPU      0.41s WALL (       1 calls)
     hinit0       :      0.40s CPU      0.40s WALL (       1 calls)

     Called by electrons:
     c_bands      :     14.23s CPU      4.75s WALL (       1 calls)
     v_of_rho     :      0.05s CPU      0.07s WALL (       1 calls)
     v_h          :      0.00s CPU      0.00s WALL (       1 calls)
     v_xc         :      0.05s CPU      0.06s WALL (       1 calls)
     newd         :      0.05s CPU      0.05s WALL (       1 calls)
     PAW_pot      :      0.14s CPU      0.14s WALL (       1 calls)

     Called by c_bands:
     init_us_2    :      0.02s CPU      0.01s WALL (       4 calls)
     cegterg      :     13.15s CPU      4.30s WALL (      10 calls)

     Called by sum_band:

     Called by *egterg:
     cdiaghg      :      0.38s CPU      0.11s WALL (     149 calls)
     cegterg:over :      0.66s CPU      0.09s WALL (     145 calls)
     cegterg:upda :      0.25s CPU      0.04s WALL (     145 calls)
     cegterg:last :      0.63s CPU      0.07s WALL (      94 calls)
     h_psi        :     11.48s CPU      4.26s WALL (     159 calls)
     s_psi        :      0.27s CPU      0.03s WALL (     159 calls)
     g_psi        :      0.16s CPU      0.04s WALL (     145 calls)

     Called by h_psi:
     h_psi:calbec :      0.32s CPU      0.06s WALL (     159 calls)
     vloc_psi     :     10.86s CPU      4.15s WALL (     159 calls)
     add_vuspsi   :      0.25s CPU      0.04s WALL (     159 calls)

     General routines
     calbec       :      0.32s CPU      0.05s WALL (     159 calls)
     fft          :      0.30s CPU      0.30s WALL (      13 calls)
     ffts         :      0.20s CPU      0.20s WALL (       1 calls)
     fftw         :      8.61s CPU      3.46s WALL (    4082 calls)
     interpolate  :      0.20s CPU      0.20s WALL (       1 calls)
     davcio       :      0.01s CPU      0.00s WALL (       8 calls)

     Parallel routines

     PAW routines
     PAW_pot      :      0.14s CPU      0.14s WALL (       1 calls)

     PWSCF        :     15.18s CPU      5.72s WALL


   This run was terminated on:  23: 3:52   7Dec2024            

=------------------------------------------------------------------------------=
   JOB DONE.
=------------------------------------------------------------------------------=
