
     Program PWSCF v.7.3.1 starts on  5Dec2024 at 16:57:51 

     This program is part of the open-source Quantum ESPRESSO suite
     for quantum simulation of materials; please cite
         "P. Giannozzi et al., J. Phys.:Condens. Matter 21 395502 (2009);
         "P. Giannozzi et al., J. Phys.:Condens. Matter 29 465901 (2017);
         "P. Giannozzi et al., J. Chem. Phys. 152 154105 (2020);
          URL http://www.quantum-espresso.org", 
     in publications or presentations arising from this work. More details at
     http://www.quantum-espresso.org/quote

     Parallel version (MPI), running on     1 processors

     MPI processes distributed on     1 nodes
     23756 MiB available memory on the printing compute node when the environment starts

     Waiting for input...
     Reading input from standard input

     Current dimensions of program PWSCF are:
     Max number of different atomic species (ntypx) = 10
     Max number of k-points (npk) =  40000
     Max angular momentum in pseudopotentials (lmaxx) =  4
     file C.pbesol-n-kjpaw_psl.1.0.0.UPF: wavefunction(s)  2S 2P renormalized
     Found identity + (  0.0000 -0.5000  0.0000) symmetry
     This is a supercell, fractional translations are disabled
     Message from routine setup:
     using ibrav=0 with symmetry is DISCOURAGED, use correct ibrav instead

     Subspace diagonalization in iterative solution of the eigenvalue problem:
     a serial algorithm will be used


     G-vector sticks info
     --------------------
     sticks:   dense  smooth     PW     G-vecs:    dense   smooth      PW
     Sum        2149    1069    313                81561    28841    4509

     Using Slab Decomposition



     bravais-lattice index     =            0
     lattice parameter (alat)  =       9.2975  a.u.
     unit-cell volume          =     707.3387 (a.u.)^3
     number of atoms/cell      =            8
     number of atomic types    =            1
     number of electrons       =        32.00
     number of Kohn-Sham states=           20
     kinetic-energy cutoff     =      45.0000  Ry
     charge density cutoff     =     360.0000  Ry
     scf convergence threshold =      1.6E-09
     mixing beta               =       0.4000
     number of iterations used =            8  plain     mixing
     energy convergence thresh.=      8.0E-05
     force convergence thresh. =      1.0E-04
     Exchange-correlation= SLA  PW   PSX  PSC
                           (   1   4  10   8   0   0   0)
     nstep                     =           50


     celldm(1)=   9.297453  celldm(2)=   0.000000  celldm(3)=   0.000000
     celldm(4)=   0.000000  celldm(5)=   0.000000  celldm(6)=   0.000000

     crystal axes: (cart. coord. in units of alat)
               a(1) = (   1.000000   0.000000   0.000000 )  
               a(2) = (  -0.500000   0.866025   0.000000 )  
               a(3) = (   0.000000   0.000000   1.016260 )  

     reciprocal axes: (cart. coord. in units 2 pi/alat)
               b(1) = (  1.000000  0.577350 -0.000000 )  
               b(2) = (  0.000000  1.154701  0.000000 )  
               b(3) = (  0.000000 -0.000000  0.984000 )  


     PseudoPot. # 1 for C  read from file:
     ./C.pbesol-n-kjpaw_psl.1.0.0.UPF
     MD5 check sum: f9b2fe17d1f478429498b05d17159f9e
     Pseudo is Projector augmented-wave + core cor, Zval =  4.0
     Generated using &quot;atomic&quot; code by A. Dal Corso  v.6.3
     Shape of augmentation charge: PSQ
     Using radial grid of 1073 points,  4 beta functions with: 
                l(1) =   0
                l(2) =   0
                l(3) =   1
                l(4) =   1
     Q(r) pseudized with 0 coefficients 


     atomic species   valence    mass     pseudopotential
     C                 4.00    12.01070     C ( 1.00)

      6 Sym. Ops. (no inversion) found


                                    s                        frac. trans.

      isym =  1     identity                                     

 cryst.   s( 1) = (     1          0          0      )
                  (     0          1          0      )
                  (     0          0          1      )

 cart.    s( 1) = (  1.0000000  0.0000000  0.0000000 )
                  (  0.0000000  1.0000000  0.0000000 )
                  (  0.0000000  0.0000000  1.0000000 )


      isym =  2     120 deg rotation - cryst. axis [0,0,1]       

 cryst.   s( 2) = (     0          1          0      )
                  (    -1         -1          0      )
                  (     0          0          1      )

 cart.    s( 2) = ( -0.5000000 -0.8660254  0.0000000 )
                  (  0.8660254 -0.5000000  0.0000000 )
                  (  0.0000000  0.0000000  1.0000000 )


      isym =  3     120 deg rotation - cryst. axis [0,0,-1]      

 cryst.   s( 3) = (    -1         -1          0      )
                  (     1          0          0      )
                  (     0          0          1      )

 cart.    s( 3) = ( -0.5000000  0.8660254  0.0000000 )
                  ( -0.8660254 -0.5000000  0.0000000 )
                  (  0.0000000  0.0000000  1.0000000 )


      isym =  4     inv. 180 deg rotation - cart. axis [1,0,0]   

 cryst.   s( 4) = (    -1          0          0      )
                  (     1          1          0      )
                  (     0          0          1      )

 cart.    s( 4) = ( -1.0000000  0.0000000  0.0000000 )
                  (  0.0000000  1.0000000  0.0000000 )
                  (  0.0000000  0.0000000  1.0000000 )


      isym =  5     inv. 180 deg rotation - cryst. axis [0,1,0]  

 cryst.   s( 5) = (     1          1          0      )
                  (     0         -1          0      )
                  (     0          0          1      )

 cart.    s( 5) = (  0.5000000  0.8660254  0.0000000 )
                  (  0.8660254 -0.5000000  0.0000000 )
                  (  0.0000000  0.0000000  1.0000000 )


      isym =  6     inv. 180 deg rotation - cryst. axis [1,1,0]  

 cryst.   s( 6) = (     0         -1          0      )
                  (    -1          0          0      )
                  (     0          0          1      )

 cart.    s( 6) = (  0.5000000 -0.8660254  0.0000000 )
                  ( -0.8660254 -0.5000000  0.0000000 )
                  (  0.0000000  0.0000000  1.0000000 )


   Cartesian axes

     site n.     atom                  positions (alat units)
         1        C      tau(   1) = (   0.0000000   0.0000000   0.2540650  )
         2        C      tau(   2) = (  -0.2500000   0.4330127   0.2540650  )
         3        C      tau(   3) = (   0.5000000   0.0000000   0.2540650  )
         4        C      tau(   4) = (   0.2500000   0.4330127   0.2540650  )
         5        C      tau(   5) = (  -0.0000005   0.2886748   0.2540650  )
         6        C      tau(   6) = (  -0.2500005   0.7216875   0.2540650  )
         7        C      tau(   7) = (   0.4999995   0.2886748   0.2540650  )
         8        C      tau(   8) = (   0.2499995   0.7216875   0.2540650  )

   Crystallographic axes

     site n.     atom                  positions (cryst. coord.)
         1        C      tau(   1) = (  0.0000000  0.0000000  0.2500000  )
         2        C      tau(   2) = (  0.0000000  0.5000000  0.2500000  )
         3        C      tau(   3) = (  0.5000000  0.0000000  0.2500000  )
         4        C      tau(   4) = (  0.5000000  0.5000000  0.2500000  )
         5        C      tau(   5) = (  0.1666660  0.3333330  0.2500000  )
         6        C      tau(   6) = (  0.1666660  0.8333330  0.2500000  )
         7        C      tau(   7) = (  0.6666660  0.3333330  0.2500000  )
         8        C      tau(   8) = (  0.6666660  0.8333330  0.2500000  )

     number of k points=   102  Marzari-Vanderbilt smearing, width (Ry)=  0.0200
                       cart. coord. in units 2pi/alat
        k(    1) = (   0.0000000   0.0000000   0.0000000), wk =   0.0022222
        k(    2) = (   0.0000000   0.0000000   0.1093333), wk =   0.0044444
        k(    3) = (   0.0000000   0.0000000   0.2186667), wk =   0.0044444
        k(    4) = (   0.0000000   0.0000000   0.3280000), wk =   0.0044444
        k(    5) = (   0.0000000   0.0000000   0.4373333), wk =   0.0044444
        k(    6) = (   0.0000000   0.1154701   0.0000000), wk =   0.0133333
        k(    7) = (   0.0000000   0.1154701   0.1093333), wk =   0.0133333
        k(    8) = (   0.0000000   0.1154701   0.2186667), wk =   0.0133333
        k(    9) = (   0.0000000   0.1154701   0.3280000), wk =   0.0133333
        k(   10) = (   0.0000000   0.1154701   0.4373333), wk =   0.0133333
        k(   11) = (   0.0000000   0.2309401   0.0000000), wk =   0.0133333
        k(   12) = (   0.0000000   0.2309401   0.1093333), wk =   0.0133333
        k(   13) = (   0.0000000   0.2309401   0.2186667), wk =   0.0133333
        k(   14) = (   0.0000000   0.2309401   0.3280000), wk =   0.0133333
        k(   15) = (   0.0000000   0.2309401   0.4373333), wk =   0.0133333
        k(   16) = (   0.0000000   0.3464102   0.0000000), wk =   0.0133333
        k(   17) = (   0.0000000   0.3464102   0.1093333), wk =   0.0133333
        k(   18) = (   0.0000000   0.3464102   0.2186667), wk =   0.0133333
        k(   19) = (   0.0000000   0.3464102   0.3280000), wk =   0.0133333
        k(   20) = (   0.0000000   0.3464102   0.4373333), wk =   0.0133333
        k(   21) = (   0.0000000   0.4618802   0.0000000), wk =   0.0133333
        k(   22) = (   0.0000000   0.4618802   0.1093333), wk =   0.0133333
        k(   23) = (   0.0000000   0.4618802   0.2186667), wk =   0.0133333
        k(   24) = (   0.0000000   0.4618802   0.3280000), wk =   0.0133333
        k(   25) = (   0.0000000   0.4618802   0.4373333), wk =   0.0133333
        k(   26) = (   0.0000000  -0.5773503   0.0000000), wk =   0.0066667
        k(   27) = (   0.0000000  -0.5773503   0.1093333), wk =   0.0133333
        k(   28) = (   0.0000000  -0.5773503   0.2186667), wk =   0.0133333
        k(   29) = (   0.0000000  -0.5773503   0.3280000), wk =   0.0133333
        k(   30) = (   0.0000000  -0.5773503   0.4373333), wk =   0.0133333
        k(   31) = (   0.1000000   0.1732051   0.0000000), wk =   0.0133333
        k(   32) = (   0.1000000   0.1732051   0.1093333), wk =   0.0266667
        k(   33) = (   0.1000000   0.1732051   0.2186667), wk =   0.0266667
        k(   34) = (   0.1000000   0.1732051   0.3280000), wk =   0.0266667
        k(   35) = (   0.1000000   0.1732051   0.4373333), wk =   0.0266667
        k(   36) = (   0.1000000   0.2886751   0.0000000), wk =   0.0266667
        k(   37) = (   0.1000000   0.2886751   0.1093333), wk =   0.0266667
        k(   38) = (   0.1000000   0.2886751   0.2186667), wk =   0.0266667
        k(   39) = (   0.1000000   0.2886751   0.3280000), wk =   0.0266667
        k(   40) = (   0.1000000   0.2886751   0.4373333), wk =   0.0266667
        k(   41) = (   0.1000000   0.4041452   0.0000000), wk =   0.0266667
        k(   42) = (   0.1000000   0.4041452   0.1093333), wk =   0.0266667
        k(   43) = (   0.1000000   0.4041452   0.2186667), wk =   0.0266667
        k(   44) = (   0.1000000   0.4041452   0.3280000), wk =   0.0266667
        k(   45) = (   0.1000000   0.4041452   0.4373333), wk =   0.0266667
        k(   46) = (   0.1000000   0.5196152   0.0000000), wk =   0.0266667
        k(   47) = (   0.1000000   0.5196152   0.1093333), wk =   0.0266667
        k(   48) = (   0.1000000   0.5196152   0.2186667), wk =   0.0266667
        k(   49) = (   0.1000000   0.5196152   0.3280000), wk =   0.0266667
        k(   50) = (   0.1000000   0.5196152   0.4373333), wk =   0.0266667
        k(   51) = (   0.2000000   0.3464102   0.0000000), wk =   0.0133333
        k(   52) = (   0.2000000   0.3464102   0.1093333), wk =   0.0266667
        k(   53) = (   0.2000000   0.3464102   0.2186667), wk =   0.0266667
        k(   54) = (   0.2000000   0.3464102   0.3280000), wk =   0.0266667
        k(   55) = (   0.2000000   0.3464102   0.4373333), wk =   0.0266667
        k(   56) = (   0.2000000   0.4618802   0.0000000), wk =   0.0266667
        k(   57) = (   0.2000000   0.4618802   0.1093333), wk =   0.0266667
        k(   58) = (   0.2000000   0.4618802   0.2186667), wk =   0.0266667
        k(   59) = (   0.2000000   0.4618802   0.3280000), wk =   0.0266667
        k(   60) = (   0.2000000   0.4618802   0.4373333), wk =   0.0266667
        k(   61) = (   0.2000000   0.5773503   0.0000000), wk =   0.0133333
        k(   62) = (   0.2000000   0.5773503   0.1093333), wk =   0.0266667
        k(   63) = (   0.2000000   0.5773503   0.2186667), wk =   0.0266667
        k(   64) = (   0.2000000   0.5773503   0.3280000), wk =   0.0266667
        k(   65) = (   0.2000000   0.5773503   0.4373333), wk =   0.0266667
        k(   66) = (   0.3000000   0.5196152   0.0000000), wk =   0.0133333
        k(   67) = (   0.3000000   0.5196152   0.1093333), wk =   0.0266667
        k(   68) = (   0.3000000   0.5196152   0.2186667), wk =   0.0266667
        k(   69) = (   0.3000000   0.5196152   0.3280000), wk =   0.0266667
        k(   70) = (   0.3000000   0.5196152   0.4373333), wk =   0.0266667
        k(   71) = (   0.0000000  -0.1154701   0.1093333), wk =   0.0133333
        k(   72) = (   0.0000000  -0.1154701   0.2186667), wk =   0.0133333
        k(   73) = (   0.0000000  -0.1154701   0.3280000), wk =   0.0133333
        k(   74) = (   0.0000000  -0.1154701   0.4373333), wk =   0.0133333
        k(   75) = (   0.0000000  -0.2309401   0.1093333), wk =   0.0133333
        k(   76) = (   0.0000000  -0.2309401   0.2186667), wk =   0.0133333
        k(   77) = (   0.0000000  -0.2309401   0.3280000), wk =   0.0133333
        k(   78) = (   0.0000000  -0.2309401   0.4373333), wk =   0.0133333
        k(   79) = (   0.0000000  -0.3464102   0.1093333), wk =   0.0133333
        k(   80) = (   0.0000000  -0.3464102   0.2186667), wk =   0.0133333
        k(   81) = (   0.0000000  -0.3464102   0.3280000), wk =   0.0133333
        k(   82) = (   0.0000000  -0.3464102   0.4373333), wk =   0.0133333
        k(   83) = (   0.0000000  -0.4618802   0.1093333), wk =   0.0133333
        k(   84) = (   0.0000000  -0.4618802   0.2186667), wk =   0.0133333
        k(   85) = (   0.0000000  -0.4618802   0.3280000), wk =   0.0133333
        k(   86) = (   0.0000000  -0.4618802   0.4373333), wk =   0.0133333
        k(   87) = (  -0.1000000  -0.2886751   0.1093333), wk =   0.0266667
        k(   88) = (  -0.1000000  -0.2886751   0.2186667), wk =   0.0266667
        k(   89) = (  -0.1000000  -0.2886751   0.3280000), wk =   0.0266667
        k(   90) = (  -0.1000000  -0.2886751   0.4373333), wk =   0.0266667
        k(   91) = (  -0.1000000  -0.4041452   0.1093333), wk =   0.0266667
        k(   92) = (  -0.1000000  -0.4041452   0.2186667), wk =   0.0266667
        k(   93) = (  -0.1000000  -0.4041452   0.3280000), wk =   0.0266667
        k(   94) = (  -0.1000000  -0.4041452   0.4373333), wk =   0.0266667
        k(   95) = (  -0.1000000  -0.5196152   0.1093333), wk =   0.0266667
        k(   96) = (  -0.1000000  -0.5196152   0.2186667), wk =   0.0266667
        k(   97) = (  -0.1000000  -0.5196152   0.3280000), wk =   0.0266667
        k(   98) = (  -0.1000000  -0.5196152   0.4373333), wk =   0.0266667
        k(   99) = (  -0.2000000  -0.4618802   0.1093333), wk =   0.0266667
        k(  100) = (  -0.2000000  -0.4618802   0.2186667), wk =   0.0266667
        k(  101) = (  -0.2000000  -0.4618802   0.3280000), wk =   0.0266667
        k(  102) = (  -0.2000000  -0.4618802   0.4373333), wk =   0.0266667

                       cryst. coord.
        k(    1) = (   0.0000000   0.0000000   0.0000000), wk =   0.0022222
        k(    2) = (   0.0000000   0.0000000   0.1111111), wk =   0.0044444
        k(    3) = (   0.0000000   0.0000000   0.2222222), wk =   0.0044444
        k(    4) = (   0.0000000   0.0000000   0.3333333), wk =   0.0044444
        k(    5) = (   0.0000000   0.0000000   0.4444444), wk =   0.0044444
        k(    6) = (   0.0000000   0.1000000   0.0000000), wk =   0.0133333
        k(    7) = (   0.0000000   0.1000000   0.1111111), wk =   0.0133333
        k(    8) = (   0.0000000   0.1000000   0.2222222), wk =   0.0133333
        k(    9) = (   0.0000000   0.1000000   0.3333333), wk =   0.0133333
        k(   10) = (   0.0000000   0.1000000   0.4444444), wk =   0.0133333
        k(   11) = (   0.0000000   0.2000000   0.0000000), wk =   0.0133333
        k(   12) = (   0.0000000   0.2000000   0.1111111), wk =   0.0133333
        k(   13) = (   0.0000000   0.2000000   0.2222222), wk =   0.0133333
        k(   14) = (   0.0000000   0.2000000   0.3333333), wk =   0.0133333
        k(   15) = (   0.0000000   0.2000000   0.4444444), wk =   0.0133333
        k(   16) = (   0.0000000   0.3000000   0.0000000), wk =   0.0133333
        k(   17) = (   0.0000000   0.3000000   0.1111111), wk =   0.0133333
        k(   18) = (   0.0000000   0.3000000   0.2222222), wk =   0.0133333
        k(   19) = (   0.0000000   0.3000000   0.3333333), wk =   0.0133333
        k(   20) = (   0.0000000   0.3000000   0.4444444), wk =   0.0133333
        k(   21) = (   0.0000000   0.4000000   0.0000000), wk =   0.0133333
        k(   22) = (   0.0000000   0.4000000   0.1111111), wk =   0.0133333
        k(   23) = (   0.0000000   0.4000000   0.2222222), wk =   0.0133333
        k(   24) = (   0.0000000   0.4000000   0.3333333), wk =   0.0133333
        k(   25) = (   0.0000000   0.4000000   0.4444444), wk =   0.0133333
        k(   26) = (   0.0000000  -0.5000000   0.0000000), wk =   0.0066667
        k(   27) = (   0.0000000  -0.5000000   0.1111111), wk =   0.0133333
        k(   28) = (   0.0000000  -0.5000000   0.2222222), wk =   0.0133333
        k(   29) = (   0.0000000  -0.5000000   0.3333333), wk =   0.0133333
        k(   30) = (   0.0000000  -0.5000000   0.4444444), wk =   0.0133333
        k(   31) = (   0.1000000   0.1000000   0.0000000), wk =   0.0133333
        k(   32) = (   0.1000000   0.1000000   0.1111111), wk =   0.0266667
        k(   33) = (   0.1000000   0.1000000   0.2222222), wk =   0.0266667
        k(   34) = (   0.1000000   0.1000000   0.3333333), wk =   0.0266667
        k(   35) = (   0.1000000   0.1000000   0.4444444), wk =   0.0266667
        k(   36) = (   0.1000000   0.2000000   0.0000000), wk =   0.0266667
        k(   37) = (   0.1000000   0.2000000   0.1111111), wk =   0.0266667
        k(   38) = (   0.1000000   0.2000000   0.2222222), wk =   0.0266667
        k(   39) = (   0.1000000   0.2000000   0.3333333), wk =   0.0266667
        k(   40) = (   0.1000000   0.2000000   0.4444444), wk =   0.0266667
        k(   41) = (   0.1000000   0.3000000   0.0000000), wk =   0.0266667
        k(   42) = (   0.1000000   0.3000000   0.1111111), wk =   0.0266667
        k(   43) = (   0.1000000   0.3000000   0.2222222), wk =   0.0266667
        k(   44) = (   0.1000000   0.3000000   0.3333333), wk =   0.0266667
        k(   45) = (   0.1000000   0.3000000   0.4444444), wk =   0.0266667
        k(   46) = (   0.1000000   0.4000000   0.0000000), wk =   0.0266667
        k(   47) = (   0.1000000   0.4000000   0.1111111), wk =   0.0266667
        k(   48) = (   0.1000000   0.4000000   0.2222222), wk =   0.0266667
        k(   49) = (   0.1000000   0.4000000   0.3333333), wk =   0.0266667
        k(   50) = (   0.1000000   0.4000000   0.4444444), wk =   0.0266667
        k(   51) = (   0.2000000   0.2000000   0.0000000), wk =   0.0133333
        k(   52) = (   0.2000000   0.2000000   0.1111111), wk =   0.0266667
        k(   53) = (   0.2000000   0.2000000   0.2222222), wk =   0.0266667
        k(   54) = (   0.2000000   0.2000000   0.3333333), wk =   0.0266667
        k(   55) = (   0.2000000   0.2000000   0.4444444), wk =   0.0266667
        k(   56) = (   0.2000000   0.3000000   0.0000000), wk =   0.0266667
        k(   57) = (   0.2000000   0.3000000   0.1111111), wk =   0.0266667
        k(   58) = (   0.2000000   0.3000000   0.2222222), wk =   0.0266667
        k(   59) = (   0.2000000   0.3000000   0.3333333), wk =   0.0266667
        k(   60) = (   0.2000000   0.3000000   0.4444444), wk =   0.0266667
        k(   61) = (   0.2000000   0.4000000   0.0000000), wk =   0.0133333
        k(   62) = (   0.2000000   0.4000000   0.1111111), wk =   0.0266667
        k(   63) = (   0.2000000   0.4000000   0.2222222), wk =   0.0266667
        k(   64) = (   0.2000000   0.4000000   0.3333333), wk =   0.0266667
        k(   65) = (   0.2000000   0.4000000   0.4444444), wk =   0.0266667
        k(   66) = (   0.3000000   0.3000000   0.0000000), wk =   0.0133333
        k(   67) = (   0.3000000   0.3000000   0.1111111), wk =   0.0266667
        k(   68) = (   0.3000000   0.3000000   0.2222222), wk =   0.0266667
        k(   69) = (   0.3000000   0.3000000   0.3333333), wk =   0.0266667
        k(   70) = (   0.3000000   0.3000000   0.4444444), wk =   0.0266667
        k(   71) = (   0.0000000  -0.1000000   0.1111111), wk =   0.0133333
        k(   72) = (   0.0000000  -0.1000000   0.2222222), wk =   0.0133333
        k(   73) = (   0.0000000  -0.1000000   0.3333333), wk =   0.0133333
        k(   74) = (   0.0000000  -0.1000000   0.4444444), wk =   0.0133333
        k(   75) = (   0.0000000  -0.2000000   0.1111111), wk =   0.0133333
        k(   76) = (   0.0000000  -0.2000000   0.2222222), wk =   0.0133333
        k(   77) = (   0.0000000  -0.2000000   0.3333333), wk =   0.0133333
        k(   78) = (   0.0000000  -0.2000000   0.4444444), wk =   0.0133333
        k(   79) = (   0.0000000  -0.3000000   0.1111111), wk =   0.0133333
        k(   80) = (   0.0000000  -0.3000000   0.2222222), wk =   0.0133333
        k(   81) = (   0.0000000  -0.3000000   0.3333333), wk =   0.0133333
        k(   82) = (   0.0000000  -0.3000000   0.4444444), wk =   0.0133333
        k(   83) = (   0.0000000  -0.4000000   0.1111111), wk =   0.0133333
        k(   84) = (   0.0000000  -0.4000000   0.2222222), wk =   0.0133333
        k(   85) = (   0.0000000  -0.4000000   0.3333333), wk =   0.0133333
        k(   86) = (   0.0000000  -0.4000000   0.4444444), wk =   0.0133333
        k(   87) = (  -0.1000000  -0.2000000   0.1111111), wk =   0.0266667
        k(   88) = (  -0.1000000  -0.2000000   0.2222222), wk =   0.0266667
        k(   89) = (  -0.1000000  -0.2000000   0.3333333), wk =   0.0266667
        k(   90) = (  -0.1000000  -0.2000000   0.4444444), wk =   0.0266667
        k(   91) = (  -0.1000000  -0.3000000   0.1111111), wk =   0.0266667
        k(   92) = (  -0.1000000  -0.3000000   0.2222222), wk =   0.0266667
        k(   93) = (  -0.1000000  -0.3000000   0.3333333), wk =   0.0266667
        k(   94) = (  -0.1000000  -0.3000000   0.4444444), wk =   0.0266667
        k(   95) = (  -0.1000000  -0.4000000   0.1111111), wk =   0.0266667
        k(   96) = (  -0.1000000  -0.4000000   0.2222222), wk =   0.0266667
        k(   97) = (  -0.1000000  -0.4000000   0.3333333), wk =   0.0266667
        k(   98) = (  -0.1000000  -0.4000000   0.4444444), wk =   0.0266667
        k(   99) = (  -0.2000000  -0.3000000   0.1111111), wk =   0.0266667
        k(  100) = (  -0.2000000  -0.3000000   0.2222222), wk =   0.0266667
        k(  101) = (  -0.2000000  -0.3000000   0.3333333), wk =   0.0266667
        k(  102) = (  -0.2000000  -0.3000000   0.4444444), wk =   0.0266667

     Dense  grid:    81561 G-vectors     FFT dimensions: (  60,  60,  60)

     Smooth grid:    28841 G-vectors     FFT dimensions: (  40,  40,  45)

     Dynamical RAM for                 wfc:       1.10 MB

     Dynamical RAM for     wfc (w. buffer):     113.35 MB

     Dynamical RAM for           str. fact:       1.24 MB

     Dynamical RAM for           local pot:       0.00 MB

     Dynamical RAM for          nlocal pot:       3.52 MB

     Dynamical RAM for                qrad:       0.44 MB

     Dynamical RAM for          rho,v,vnew:       8.68 MB

     Dynamical RAM for               rhoin:       2.89 MB

     Dynamical RAM for            rho*nmix:      19.91 MB

     Dynamical RAM for           G-vectors:       4.89 MB

     Dynamical RAM for          h,s,v(r/c):       0.07 MB

     Dynamical RAM for          <psi|beta>:       0.02 MB

     Dynamical RAM for                 psi:       2.20 MB

     Dynamical RAM for                hpsi:       2.20 MB

     Dynamical RAM for                spsi:       2.20 MB

     Dynamical RAM for      wfcinit/wfcrot:       3.55 MB

     Dynamical RAM for           addusdens:      63.47 MB

     Dynamical RAM for          addusforce:      81.52 MB

     Dynamical RAM for         addusstress:      62.23 MB

     Estimated static dynamical RAM per process >     145.73 MB

     Estimated max dynamical RAM per process >     247.17 MB

     Check: negative core charge=   -0.000009

     Initial potential from superposition of free atoms

     starting charge      31.9997, renormalised to      32.0000
     Starting wfcs are   32 randomized atomic wfcs
     Checking if some PAW data can be deallocated... 

     total cpu time spent up to now is        9.1 secs

     Self-consistent Calculation

     iteration #  1     ecut=    45.00 Ry     beta= 0.40
     Davidson diagonalization with overlap

---- Real-time Memory Report at c_bands before calling an iterative solver
           192 MiB given to the printing process from OS
             0 MiB allocation reported by mallinfo(arena+hblkhd)
         23567 MiB available memory on the node where the printing process lives
------------------
     ethr =  1.00E-02,  avg # of iterations =  2.3

     total cpu time spent up to now is       25.8 secs

     WARNING: integrated charge=    32.00273269, expected=    32.00000000

     total energy              =    -144.96800049 Ry
     estimated scf accuracy    <       0.74859668 Ry

     iteration #  2     ecut=    45.00 Ry     beta= 0.40
     Davidson diagonalization with overlap

---- Real-time Memory Report at c_bands before calling an iterative solver
           254 MiB given to the printing process from OS
             0 MiB allocation reported by mallinfo(arena+hblkhd)
         23536 MiB available memory on the node where the printing process lives
------------------
     ethr =  2.34E-03,  avg # of iterations =  1.6

     total cpu time spent up to now is       37.8 secs

     WARNING: integrated charge=    32.00558235, expected=    32.00000000

     total energy              =    -144.88942538 Ry
     estimated scf accuracy    <       0.17594794 Ry

     iteration #  3     ecut=    45.00 Ry     beta= 0.40
     Davidson diagonalization with overlap

---- Real-time Memory Report at c_bands before calling an iterative solver
           261 MiB given to the printing process from OS
             0 MiB allocation reported by mallinfo(arena+hblkhd)
         23515 MiB available memory on the node where the printing process lives
------------------
     ethr =  5.50E-04,  avg # of iterations =  4.0

     total cpu time spent up to now is       54.6 secs

     WARNING: integrated charge=    32.00567244, expected=    32.00000000

     total energy              =    -144.92571632 Ry
     estimated scf accuracy    <       0.00658173 Ry

     iteration #  4     ecut=    45.00 Ry     beta= 0.40
     Davidson diagonalization with overlap

---- Real-time Memory Report at c_bands before calling an iterative solver
           261 MiB given to the printing process from OS
             0 MiB allocation reported by mallinfo(arena+hblkhd)
         23343 MiB available memory on the node where the printing process lives
------------------
     ethr =  2.06E-05,  avg # of iterations =  5.4

     total cpu time spent up to now is       72.2 secs

     WARNING: integrated charge=    32.00622382, expected=    32.00000000

     total energy              =    -144.92648077 Ry
     estimated scf accuracy    <       0.00211143 Ry

     iteration #  5     ecut=    45.00 Ry     beta= 0.40
     Davidson diagonalization with overlap

---- Real-time Memory Report at c_bands before calling an iterative solver
           262 MiB given to the printing process from OS
             0 MiB allocation reported by mallinfo(arena+hblkhd)
         23477 MiB available memory on the node where the printing process lives
------------------
     ethr =  6.60E-06,  avg # of iterations =  2.9

     total cpu time spent up to now is       88.4 secs

     WARNING: integrated charge=    32.00623290, expected=    32.00000000

     total energy              =    -144.92680996 Ry
     estimated scf accuracy    <       0.00005266 Ry

     iteration #  6     ecut=    45.00 Ry     beta= 0.40
     Davidson diagonalization with overlap

---- Real-time Memory Report at c_bands before calling an iterative solver
           263 MiB given to the printing process from OS
             0 MiB allocation reported by mallinfo(arena+hblkhd)
         23473 MiB available memory on the node where the printing process lives
------------------
     ethr =  1.65E-07,  avg # of iterations =  3.7

     total cpu time spent up to now is      103.9 secs

     WARNING: integrated charge=    32.00624755, expected=    32.00000000

     total energy              =    -144.92681672 Ry
     estimated scf accuracy    <       0.00000343 Ry

     iteration #  7     ecut=    45.00 Ry     beta= 0.40
     Davidson diagonalization with overlap

---- Real-time Memory Report at c_bands before calling an iterative solver
           264 MiB given to the printing process from OS
             0 MiB allocation reported by mallinfo(arena+hblkhd)
         23494 MiB available memory on the node where the printing process lives
------------------
     ethr =  1.07E-08,  avg # of iterations =  2.9

     total cpu time spent up to now is      120.2 secs

     WARNING: integrated charge=    32.00624876, expected=    32.00000000

     total energy              =    -144.92681759 Ry
     estimated scf accuracy    <       0.00000008 Ry

     iteration #  8     ecut=    45.00 Ry     beta= 0.40
     Davidson diagonalization with overlap

---- Real-time Memory Report at c_bands before calling an iterative solver
           265 MiB given to the printing process from OS
             0 MiB allocation reported by mallinfo(arena+hblkhd)
         23473 MiB available memory on the node where the printing process lives
------------------
     ethr =  2.53E-10,  avg # of iterations =  3.8

     total cpu time spent up to now is      135.8 secs

     WARNING: integrated charge=    32.00624834, expected=    32.00000000

     total energy              =    -144.92681762 Ry
     estimated scf accuracy    <       0.00000004 Ry

     iteration #  9     ecut=    45.00 Ry     beta= 0.40
     Davidson diagonalization with overlap

---- Real-time Memory Report at c_bands before calling an iterative solver
           266 MiB given to the printing process from OS
             0 MiB allocation reported by mallinfo(arena+hblkhd)
         23488 MiB available memory on the node where the printing process lives
------------------
     ethr =  1.26E-10,  avg # of iterations =  2.0

     total cpu time spent up to now is      149.4 secs

     End of self-consistent calculation

          k = 0.0000 0.0000 0.0000 (  3573 PWs)   bands (ev):

   -16.2467 -10.9384 -10.9383 -10.9383  -9.9898  -9.9898  -9.9897  -4.3237
    -3.1265  -3.1264  -3.1264   0.2955   0.2956   0.9626   0.9626   0.9626
     5.0340   5.0340   5.0341   6.1558

     occupation numbers 
     1.0000   1.0000   1.0000   1.0000   1.0000   1.0000   1.0000   1.0000
     1.0000   1.0000   1.0000   1.0000   1.0000   1.0000   1.0000   1.0000
     0.0000   0.0000   0.0000   0.0000

          k = 0.0000 0.0000 0.1093 (  3584 PWs)   bands (ev):

   -16.2461 -10.9379 -10.9379 -10.9379  -9.9894  -9.9894  -9.9893  -4.3413
    -3.1264  -3.1264  -3.1264   0.2954   0.2956   0.9537   0.9538   0.9538
     5.0164   5.0164   5.0165   6.3179

     occupation numbers 
     1.0000   1.0000   1.0000   1.0000   1.0000   1.0000   1.0000   1.0000
     1.0000   1.0000   1.0000   1.0000   1.0000   1.0000   1.0000   1.0000
     0.0000   0.0000   0.0000   0.0000

          k = 0.0000 0.0000 0.2187 (  3584 PWs)   bands (ev):

   -16.2443 -10.9368 -10.9367 -10.9367  -9.9885  -9.9885  -9.9884  -4.3852
    -3.1263  -3.1262  -3.1262   0.2955   0.2956   0.9315   0.9315   0.9315
     4.9725   4.9725   4.9725   6.7847

     occupation numbers 
     1.0000   1.0000   1.0000   1.0000   1.0000   1.0000   1.0000   1.0000
     1.0000   1.0000   1.0000   1.0000   1.0000   1.0000   1.0000   1.0000
     0.0000   0.0000   0.0000   0.0000

          k = 0.0000 0.0000 0.3280 (  3602 PWs)   bands (ev):

   -16.2421 -10.9356 -10.9356 -10.9356  -9.9875  -9.9875  -9.9874  -4.4340
    -3.1261  -3.1261  -3.1261   0.2955   0.2956   0.9064   0.9065   0.9065
     4.9237   4.9237   4.9237   7.4868

     occupation numbers 
     1.0000   1.0000   1.0000   1.0000   1.0000   1.0000   1.0000   1.0000
     1.0000   1.0000   1.0000   1.0000   1.0000   1.0000   1.0000   1.0000
     0.0000   0.0000   0.0000   0.0000

          k = 0.0000 0.0000 0.4373 (  3614 PWs)   bands (ev):

   -16.2407 -10.9348 -10.9348 -10.9348  -9.9868  -9.9868  -9.9867  -4.4653
    -3.1261  -3.1260  -3.1260   0.2956   0.2957   0.8902   0.8902   0.8902
     4.8925   4.8925   4.8926   8.2011

     occupation numbers 
     1.0000   1.0000   1.0000   1.0000   1.0000   1.0000   1.0000   1.0000
     1.0000   1.0000   1.0000   1.0000   1.0000   1.0000   1.0000   1.0000
     0.0000   0.0000   0.0000   0.0000

          k = 0.0000 0.1155 0.0000 (  3573 PWs)   bands (ev):

   -16.1874 -11.6233 -11.1431 -11.1431  -9.6866  -9.6865  -9.2164  -4.2527
    -3.3097  -3.3096  -3.0671   0.0527   0.1660   0.6094   0.9206   0.9206
     5.1394   5.1394   5.4804   6.2347

     occupation numbers 
     1.0000   1.0000   1.0000   1.0000   1.0000   1.0000   1.0000   1.0000
     1.0000   1.0000   1.0000   1.0000   1.0000   1.0000   1.0000   1.0000
     0.0000   0.0000   0.0000   0.0000

          k = 0.0000 0.1155 0.1093 (  3576 PWs)   bands (ev):

   -16.1867 -11.6228 -11.1427 -11.1427  -9.6863  -9.6862  -9.2161  -4.2703
    -3.3096  -3.3096  -3.0671   0.0527   0.1660   0.5993   0.9114   0.9114
     5.1226   5.1227   5.4641   6.3966

     occupation numbers 
     1.0000   1.0000   1.0000   1.0000   1.0000   1.0000   1.0000   1.0000
     1.0000   1.0000   1.0000   1.0000   1.0000   1.0000   1.0000   1.0000
     0.0000   0.0000   0.0000   0.0000

          k = 0.0000 0.1155 0.2187 (  3582 PWs)   bands (ev):

   -16.1848 -11.6217 -11.1416 -11.1416  -9.6854  -9.6853  -9.2153  -4.3140
    -3.3095  -3.3094  -3.0670   0.0527   0.1660   0.5739   0.8882   0.8883
     5.0809   5.0810   5.4234   6.8628

     occupation numbers 
     1.0000   1.0000   1.0000   1.0000   1.0000   1.0000   1.0000   1.0000
     1.0000   1.0000   1.0000   1.0000   1.0000   1.0000   1.0000   1.0000
     0.0000   0.0000   0.0000   0.0000

          k = 0.0000 0.1155 0.3280 (  3590 PWs)   bands (ev):

   -16.1827 -11.6204 -11.1404 -11.1404  -9.6844  -9.6843  -9.2143  -4.3626
    -3.3093  -3.3093  -3.0668   0.0528   0.1661   0.5453   0.8622   0.8622
     5.0346   5.0347   5.3783   7.5641

     occupation numbers 
     1.0000   1.0000   1.0000   1.0000   1.0000   1.0000   1.0000   1.0000
     1.0000   1.0000   1.0000   1.0000   1.0000   1.0000   1.0000   1.0000
     0.0000   0.0000   0.0000   0.0000

          k = 0.0000 0.1155 0.4373 (  3617 PWs)   bands (ev):

   -16.1813 -11.6196 -11.1396 -11.1396  -9.6837  -9.6837  -9.2137  -4.3938
    -3.3092  -3.3092  -3.0667   0.0529   0.1661   0.5268   0.8453   0.8453
     5.0050   5.0051   5.3495   8.2777

     occupation numbers 
     1.0000   1.0000   1.0000   1.0000   1.0000   1.0000   1.0000   1.0000
     1.0000   1.0000   1.0000   1.0000   1.0000   1.0000   1.0000   1.0000
     0.0000   0.0000   0.0000   0.0000

          k = 0.0000 0.2309 0.0000 (  3591 PWs)   bands (ev):

   -16.0095 -12.5417 -11.4639 -11.4639  -9.0758  -9.0757  -8.0361  -4.0405
    -3.8117  -3.8117  -2.8910  -0.6250  -0.1854  -0.1641   0.8174   0.8175
     5.4158   5.4158   6.4717   6.5280

     occupation numbers 
     1.0000   1.0000   1.0000   1.0000   1.0000   1.0000   1.0000   1.0000
     1.0000   1.0000   1.0000   1.0000   1.0000   1.0000   1.0000   1.0000
     0.0000   0.0000   0.0000   0.0000

          k = 0.0000 0.2309 0.1093 (  3592 PWs)   bands (ev):

   -16.0088 -12.5412 -11.4634 -11.4634  -9.0754  -9.0754  -8.0358  -4.0578
    -3.8116  -3.8116  -2.8910  -0.6249  -0.1855  -0.1763   0.8074   0.8075
     5.4015   5.4016   6.5135   6.6329

     occupation numbers 
     1.0000   1.0000   1.0000   1.0000   1.0000   1.0000   1.0000   1.0000
     1.0000   1.0000   1.0000   1.0000   1.0000   1.0000   1.0000   1.0000
     0.0000   0.0000   0.0000   0.0000

          k = 0.0000 0.2309 0.2187 (  3601 PWs)   bands (ev):

   -16.0070 -12.5400 -11.4623 -11.4623  -9.0746  -9.0746  -8.0351  -4.1010
    -3.8114  -3.8113  -2.8909  -0.6248  -0.2066  -0.1854   0.7822   0.7823
     5.3658   5.3659   6.4777   7.0972

     occupation numbers 
     1.0000   1.0000   1.0000   1.0000   1.0000   1.0000   1.0000   1.0000
     1.0000   1.0000   1.0000   1.0000   1.0000   1.0000   1.0000   1.0000
     0.0000   0.0000   0.0000   0.0000

          k = 0.0000 0.2309 0.3280 (  3605 PWs)   bands (ev):

   -16.0049 -12.5385 -11.4610 -11.4610  -9.0737  -9.0736  -8.0343  -4.1491
    -3.8111  -3.8111  -2.8907  -0.6246  -0.2407  -0.1853   0.7539   0.7539
     5.3261   5.3262   6.4384   7.7958

     occupation numbers 
     1.0000   1.0000   1.0000   1.0000   1.0000   1.0000   1.0000   1.0000
     1.0000   1.0000   1.0000   1.0000   1.0000   1.0000   1.0000   1.0000
     0.0000   0.0000   0.0000   0.0000

          k = 0.0000 0.2309 0.4373 (  3609 PWs)   bands (ev):

   -16.0035 -12.5376 -11.4602 -11.4602  -9.0731  -9.0730  -8.0338  -4.1799
    -3.8110  -3.8109  -2.8906  -0.6245  -0.2627  -0.1853   0.7356   0.7356
     5.3007   5.3007   6.4135   8.5071

     occupation numbers 
     1.0000   1.0000   1.0000   1.0000   1.0000   1.0000   1.0000   1.0000
     1.0000   1.0000   1.0000   1.0000   1.0000   1.0000   1.0000   1.0000
     0.0000   0.0000   0.0000   0.0000

          k = 0.0000 0.3464 0.0000 (  3603 PWs)   bands (ev):

   -15.7137 -13.3879 -11.7222 -11.7222  -8.3547  -8.3546  -6.7637  -4.5183
    -4.5182  -3.6889  -2.6037  -1.6208  -1.0303  -0.6743   0.7013   0.7014
     5.7637   5.7637   6.8666   7.8321

     occupation numbers 
     1.0000   1.0000   1.0000   1.0000   1.0000   1.0000   1.0000   1.0000
     1.0000   1.0000   1.0000   1.0000   1.0000   1.0000   1.0000   1.0000
     0.0000   0.0000   0.0000   0.0000

          k = 0.0000 0.3464 0.1093 (  3596 PWs)   bands (ev):

   -15.7130 -13.3873 -11.7217 -11.7217  -8.3544  -8.3543  -6.7634  -4.5181
    -4.5181  -3.7059  -2.6036  -1.6208  -1.0440  -0.6743   0.6905   0.6905
     5.7526   5.7527   7.0267   7.8179

     occupation numbers 
     1.0000   1.0000   1.0000   1.0000   1.0000   1.0000   1.0000   1.0000
     1.0000   1.0000   1.0000   1.0000   1.0000   1.0000   1.0000   1.0000
     0.0000   0.0000   0.0000   0.0000

          k = 0.0000 0.3464 0.2187 (  3604 PWs)   bands (ev):

   -15.7113 -13.3860 -11.7205 -11.7205  -8.3537  -8.3536  -6.7629  -4.5178
    -4.5178  -3.7483  -2.6035  -1.6206  -1.0783  -0.6742   0.6633   0.6633
     5.7251   5.7251   7.4875   7.7842

     occupation numbers 
     1.0000   1.0000   1.0000   1.0000   1.0000   1.0000   1.0000   1.0000
     1.0000   1.0000   1.0000   1.0000   1.0000   1.0000   1.0000   1.0000
     0.0000   0.0000   0.0000   0.0000

          k = 0.0000 0.3464 0.3280 (  3607 PWs)   bands (ev):

   -15.7093 -13.3844 -11.7192 -11.7192  -8.3528  -8.3528  -6.7622  -4.5174
    -4.5174  -3.7954  -2.6033  -1.6204  -1.1166  -0.6741   0.6327   0.6327
     5.6944   5.6944   7.7493   8.1808

     occupation numbers 
     1.0000   1.0000   1.0000   1.0000   1.0000   1.0000   1.0000   1.0000
     1.0000   1.0000   1.0000   1.0000   1.0000   1.0000   1.0000   1.0000
     0.0000   0.0000   0.0000   0.0000

          k = 0.0000 0.3464 0.4373 (  3603 PWs)   bands (ev):

   -15.7079 -13.3834 -11.7184 -11.7184  -8.3523  -8.3522  -6.7617  -4.5172
    -4.5171  -3.8257  -2.6032  -1.6203  -1.1413  -0.6741   0.6129   0.6129
     5.6746   5.6746   7.7279   8.8870

     occupation numbers 
     1.0000   1.0000   1.0000   1.0000   1.0000   1.0000   1.0000   1.0000
     1.0000   1.0000   1.0000   1.0000   1.0000   1.0000   1.0000   1.0000
     0.0000   0.0000   0.0000   0.0000

          k = 0.0000 0.4619 0.0000 (  3613 PWs)   bands (ev):

   -15.3013 -14.1348 -11.8831 -11.8831  -7.6216  -7.6215  -5.4433  -5.2751
    -5.2751  -3.2021  -2.8146  -2.2153  -1.8550  -1.2152   0.6149   0.6149
     6.0548   6.0548   7.4193   9.2297

     occupation numbers 
     1.0000   1.0000   1.0000   1.0000   1.0000   1.0000   1.0000   1.0000
     1.0000   1.0000   1.0000   1.0000   1.0000   1.0000   1.0000   1.0000
     0.0000   0.0000   0.0000   0.0000

          k = 0.0000 0.4619 0.1093 (  3615 PWs)   bands (ev):

   -15.3006 -14.1342 -11.8827 -11.8827  -7.6213  -7.6213  -5.4432  -5.2749
    -5.2749  -3.2185  -2.8145  -2.2152  -1.8699  -1.2151   0.6035   0.6035
     6.0469   6.0469   7.5773   9.0821

     occupation numbers 
     1.0000   1.0000   1.0000   1.0000   1.0000   1.0000   1.0000   1.0000
     1.0000   1.0000   1.0000   1.0000   1.0000   1.0000   1.0000   1.0000
     0.0000   0.0000   0.0000   0.0000

          k = 0.0000 0.4619 0.2187 (  3607 PWs)   bands (ev):

   -15.2989 -14.1327 -11.8815 -11.8815  -7.6207  -7.6206  -5.4427  -5.2745
    -5.2745  -3.2597  -2.8142  -2.2151  -1.9071  -1.2150   0.5748   0.5749
     6.0271   6.0271   8.0322   9.1308

     occupation numbers 
     1.0000   1.0000   1.0000   1.0000   1.0000   1.0000   1.0000   1.0000
     1.0000   1.0000   1.0000   1.0000   1.0000   1.0000   1.0000   1.0000
     0.0000   0.0000   0.0000   0.0000

          k = 0.0000 0.4619 0.3280 (  3607 PWs)   bands (ev):

   -15.2970 -14.1311 -11.8802 -11.8802  -7.6199  -7.6199  -5.4421  -5.2740
    -5.2740  -3.3055  -2.8139  -2.2150  -1.9487  -1.2149   0.5427   0.5427
     6.0048   6.0049   8.7157   9.1235

     occupation numbers 
     1.0000   1.0000   1.0000   1.0000   1.0000   1.0000   1.0000   1.0000
     1.0000   1.0000   1.0000   1.0000   1.0000   1.0000   1.0000   1.0000
     0.0000   0.0000   0.0000   0.0000

          k = 0.0000 0.4619 0.4373 (  3596 PWs)   bands (ev):

   -15.2958 -14.1300 -11.8793 -11.8793  -7.6195  -7.6194  -5.4417  -5.2737
    -5.2737  -3.3349  -2.8137  -2.2149  -1.9754  -1.2148   0.5220   0.5220
     5.9904   5.9905   9.1144   9.4094

     occupation numbers 
     1.0000   1.0000   1.0000   1.0000   1.0000   1.0000   1.0000   1.0000
     1.0000   1.0000   1.0000   1.0000   1.0000   1.0000   1.0000   1.0000
     0.0000   0.0000   0.0000   0.0000

          k = 0.0000-0.5774 0.0000 (  3608 PWs)   bands (ev):

   -14.7740 -14.7740 -11.9375 -11.9375  -7.1981  -7.1981  -5.7121  -5.7121
    -4.1112  -4.1112  -2.5867  -2.5867  -1.7432  -1.7432   0.5834   0.5834
     6.1694   6.1694   8.1284   8.1284

     occupation numbers 
     1.0000   1.0000   1.0000   1.0000   1.0000   1.0000   1.0000   1.0000
     1.0000   1.0000   1.0000   1.0000   1.0000   1.0000   1.0000   1.0000
     0.0000   0.0000   0.0000   0.0000

          k = 0.0000-0.5774 0.1093 (  3612 PWs)   bands (ev):

   -14.7734 -14.7734 -11.9371 -11.9371  -7.1979  -7.1979  -5.7119  -5.7119
    -4.1111  -4.1111  -2.6025  -2.6025  -1.7432  -1.7432   0.5718   0.5718
     6.1628   6.1628   8.2826   8.2826

     occupation numbers 
     1.0000   1.0000   1.0000   1.0000   1.0000   1.0000   1.0000   1.0000
     1.0000   1.0000   1.0000   1.0000   1.0000   1.0000   1.0000   1.0000
     0.0000   0.0000   0.0000   0.0000

          k = 0.0000-0.5774 0.2187 (  3608 PWs)   bands (ev):

   -14.7718 -14.7718 -11.9359 -11.9359  -7.1973  -7.1973  -5.7114  -5.7114
    -4.1107  -4.1107  -2.6420  -2.6420  -1.7431  -1.7431   0.5427   0.5427
     6.1463   6.1463   8.7247   8.7247

     occupation numbers 
     1.0000   1.0000   1.0000   1.0000   1.0000   1.0000   1.0000   1.0000
     1.0000   1.0000   1.0000   1.0000   1.0000   1.0000   1.0000   1.0000
     0.0000   0.0000   0.0000   0.0000

          k = 0.0000-0.5774 0.3280 (  3614 PWs)   bands (ev):

   -14.7700 -14.7700 -11.9345 -11.9345  -7.1966  -7.1966  -5.7109  -5.7109
    -4.1103  -4.1103  -2.6860  -2.6860  -1.7430  -1.7430   0.5100   0.5100
     6.1277   6.1277   9.3771   9.3773

     occupation numbers 
     1.0000   1.0000   1.0000   1.0000   1.0000   1.0000   1.0000   1.0000
     1.0000   1.0000   1.0000   1.0000   1.0000   1.0000   1.0000   1.0000
     0.0000   0.0000   0.0000   0.0000

          k = 0.0000-0.5774 0.4373 (  3598 PWs)   bands (ev):

   -14.7689 -14.7689 -11.9336 -11.9336  -7.1962  -7.1962  -5.7105  -5.7105
    -4.1100  -4.1100  -2.7142  -2.7142  -1.7429  -1.7429   0.4890   0.4890
     6.1157   6.1157   9.9821   9.9822

     occupation numbers 
     1.0000   1.0000   1.0000   1.0000   1.0000   1.0000   1.0000   1.0000
     1.0000   1.0000   1.0000   1.0000   1.0000   1.0000   1.0000   1.0000
     0.0000   0.0000   0.0000   0.0000

          k = 0.1000 0.1732 0.0000 (  3604 PWs)   bands (ev):

   -16.0688 -12.0469 -12.0469 -10.7867  -9.8371  -8.6090  -8.6089  -4.1111
    -3.8724  -3.1909  -3.1909  -0.3888  -0.0936   0.2999   0.2999   1.1795
     4.9703   5.9404   5.9404   6.3926

     occupation numbers 
     1.0000   1.0000   1.0000   1.0000   1.0000   1.0000   1.0000   1.0000
     1.0000   1.0000   1.0000   1.0000   1.0000   1.0000   1.0000   1.0000
     0.0000   0.0000   0.0000   0.0000

          k = 0.1000 0.1732 0.1093 (  3584 PWs)   bands (ev):

   -16.0680 -12.0464 -12.0464 -10.7863  -9.8367  -8.6087  -8.6086  -4.1285
    -3.8724  -3.1909  -3.1908  -0.3886  -0.0936   0.2888   0.2888   1.1708
     4.9546   5.9256   5.9256   6.5541

     occupation numbers 
     1.0000   1.0000   1.0000   1.0000   1.0000   1.0000   1.0000   1.0000
     1.0000   1.0000   1.0000   1.0000   1.0000   1.0000   1.0000   1.0000
     0.0000   0.0000   0.0000   0.0000

          k = 0.1000 0.1732 0.2187 (  3586 PWs)   bands (ev):

   -16.0662 -12.0452 -12.0452 -10.7852  -9.8358  -8.6079  -8.6078  -4.1719
    -3.8721  -3.1907  -3.1907  -0.3885  -0.0935   0.2608   0.2609   1.1487
     4.9156   5.8888   5.8889   7.0191

     occupation numbers 
     1.0000   1.0000   1.0000   1.0000   1.0000   1.0000   1.0000   1.0000
     1.0000   1.0000   1.0000   1.0000   1.0000   1.0000   1.0000   1.0000
     0.0000   0.0000   0.0000   0.0000

          k = 0.1000 0.1732 0.3280 (  3593 PWs)   bands (ev):

   -16.0641 -12.0439 -12.0439 -10.7840  -9.8348  -8.6070  -8.6070  -4.2201
    -3.8718  -3.1906  -3.1905  -0.3884  -0.0935   0.2295   0.2295   1.1239
     4.8721   5.8482   5.8482   7.7186

     occupation numbers 
     1.0000   1.0000   1.0000   1.0000   1.0000   1.0000   1.0000   1.0000
     1.0000   1.0000   1.0000   1.0000   1.0000   1.0000   1.0000   1.0000
     0.0000   0.0000   0.0000   0.0000

          k = 0.1000 0.1732 0.4373 (  3612 PWs)   bands (ev):

   -16.0628 -12.0430 -12.0430 -10.7833  -9.8341  -8.6065  -8.6064  -4.2511
    -3.8717  -3.1905  -3.1904  -0.3884  -0.0934   0.2093   0.2093   1.1078
     4.8442   5.8222   5.8223   8.4308

     occupation numbers 
     1.0000   1.0000   1.0000   1.0000   1.0000   1.0000   1.0000   1.0000
     1.0000   1.0000   1.0000   1.0000   1.0000   1.0000   1.0000   1.0000
     0.0000   0.0000   0.0000   0.0000

          k = 0.1000 0.2887 0.0000 (  3597 PWs)   bands (ev):

   -15.8319 -12.9343 -12.3761 -10.8337  -9.3971  -7.9148  -7.3802  -4.6466
    -3.8292  -3.6304  -2.9566  -1.1866  -0.5532  -0.5470   0.0359   1.3467
     4.9793   6.4420   6.7087   7.1365

     occupation numbers 
     1.0000   1.0000   1.0000   1.0000   1.0000   1.0000   1.0000   1.0000
     1.0000   1.0000   1.0000   1.0000   1.0000   1.0000   1.0000   1.0000
     0.0000   0.0000   0.0000   0.0000

          k = 0.1000 0.2887 0.1093 (  3594 PWs)   bands (ev):

   -15.8312 -12.9338 -12.3756 -10.8332  -9.3967  -7.9146  -7.3799  -4.6465
    -3.8463  -3.6303  -2.9566  -1.1866  -0.5599  -0.5532   0.0240   1.3377
     4.9662   6.4297   6.8693   7.1232

     occupation numbers 
     1.0000   1.0000   1.0000   1.0000   1.0000   1.0000   1.0000   1.0000
     1.0000   1.0000   1.0000   1.0000   1.0000   1.0000   1.0000   1.0000
     0.0000   0.0000   0.0000   0.0000

          k = 0.1000 0.2887 0.2187 (  3601 PWs)   bands (ev):

   -15.8294 -12.9325 -12.3744 -10.8322  -9.3959  -7.9139  -7.3793  -4.6461
    -3.8890  -3.6301  -2.9564  -1.1864  -0.5923  -0.5531  -0.0060   1.3149
     4.9337   6.3994   7.0907   7.3316

     occupation numbers 
     1.0000   1.0000   1.0000   1.0000   1.0000   1.0000   1.0000   1.0000
     1.0000   1.0000   1.0000   1.0000   1.0000   1.0000   1.0000   1.0000
     0.0000   0.0000   0.0000   0.0000

          k = 0.1000 0.2887 0.3280 (  3609 PWs)   bands (ev):

   -15.8274 -12.9310 -12.3730 -10.8310  -9.3949  -7.9131  -7.3785  -4.6457
    -3.9365  -3.6298  -2.9563  -1.1862  -0.6285  -0.5531  -0.0396   1.2894
     4.8972   6.3658   7.0554   8.0272

     occupation numbers 
     1.0000   1.0000   1.0000   1.0000   1.0000   1.0000   1.0000   1.0000
     1.0000   1.0000   1.0000   1.0000   1.0000   1.0000   1.0000   1.0000
     0.0000   0.0000   0.0000   0.0000

          k = 0.1000 0.2887 0.4373 (  3606 PWs)   bands (ev):

   -15.8261 -12.9301 -12.3721 -10.8303  -9.3943  -7.9126  -7.3780  -4.6455
    -3.9670  -3.6297  -2.9562  -1.1861  -0.6519  -0.5530  -0.0613   1.2728
     4.8738   6.3444   7.0333   8.7357

     occupation numbers 
     1.0000   1.0000   1.0000   1.0000   1.0000   1.0000   1.0000   1.0000
     1.0000   1.0000   1.0000   1.0000   1.0000   1.0000   1.0000   1.0000
     0.0000   0.0000   0.0000   0.0000

          k = 0.1000 0.4041 0.0000 (  3603 PWs)   bands (ev):

   -15.4779 -13.7316 -12.5994 -10.9901  -8.6919  -7.1823  -6.0881  -5.5039
    -4.2598  -3.4098  -2.6140  -2.2478  -1.4018  -1.1027  -0.1535   1.4254
     5.0977   6.8851   7.1828   8.4863

     occupation numbers 
     1.0000   1.0000   1.0000   1.0000   1.0000   1.0000   1.0000   1.0000
     1.0000   1.0000   1.0000   1.0000   1.0000   1.0000   1.0000   1.0000
     0.0000   0.0000   0.0000   0.0000

          k = 0.1000 0.4041 0.1093 (  3608 PWs)   bands (ev):

   -15.4771 -13.7310 -12.5989 -10.9897  -8.6916  -7.1821  -6.0879  -5.5038
    -4.2596  -3.4265  -2.6140  -2.2477  -1.4161  -1.1027  -0.1660   1.4157
     5.0880   6.8760   7.3419   8.4709

     occupation numbers 
     1.0000   1.0000   1.0000   1.0000   1.0000   1.0000   1.0000   1.0000
     1.0000   1.0000   1.0000   1.0000   1.0000   1.0000   1.0000   1.0000
     0.0000   0.0000   0.0000   0.0000

          k = 0.1000 0.4041 0.2187 (  3613 PWs)   bands (ev):

   -15.4754 -13.7296 -12.5976 -10.9887  -8.6908  -7.1814  -6.0874  -5.5033
    -4.2593  -3.4681  -2.6138  -2.2474  -1.4518  -1.1026  -0.1975   1.3913
     5.0636   6.8536   7.7996   8.4383

     occupation numbers 
     1.0000   1.0000   1.0000   1.0000   1.0000   1.0000   1.0000   1.0000
     1.0000   1.0000   1.0000   1.0000   1.0000   1.0000   1.0000   1.0000
     0.0000   0.0000   0.0000   0.0000

          k = 0.1000 0.4041 0.3280 (  3615 PWs)   bands (ev):

   -15.4735 -13.7280 -12.5962 -10.9875  -8.6899  -7.1807  -6.0868  -5.5028
    -4.2590  -3.5146  -2.6137  -2.2472  -1.4917  -1.1025  -0.2326   1.3639
     5.0362   6.8288   8.4076   8.4881

     occupation numbers 
     1.0000   1.0000   1.0000   1.0000   1.0000   1.0000   1.0000   1.0000
     1.0000   1.0000   1.0000   1.0000   1.0000   1.0000   1.0000   1.0000
     0.0000   0.0000   0.0000   0.0000

          k = 0.1000 0.4041 0.4373 (  3606 PWs)   bands (ev):

   -15.4722 -13.7269 -12.5953 -10.9867  -8.6894  -7.1803  -6.0864  -5.5025
    -4.2587  -3.5443  -2.6136  -2.2470  -1.5174  -1.1024  -0.2553   1.3462
     5.0185   6.8128   8.3896   9.1887

     occupation numbers 
     1.0000   1.0000   1.0000   1.0000   1.0000   1.0000   1.0000   1.0000
     1.0000   1.0000   1.0000   1.0000   1.0000   1.0000   1.0000   1.0000
     0.0000   0.0000   0.0000   0.0000

          k = 0.1000 0.5196 0.0000 (  3605 PWs)   bands (ev):

   -15.0080 -14.4247 -12.7119 -11.0836  -8.0297  -6.5531  -6.2428  -4.8590
    -4.7703  -3.4701  -2.8582  -2.1834  -2.1753  -1.6608  -0.2520   1.4504
     5.2049   7.1523   7.8140   8.6011

     occupation numbers 
     1.0000   1.0000   1.0000   1.0000   1.0000   1.0000   1.0000   1.0000
     1.0000   1.0000   1.0000   1.0000   1.0000   1.0000   1.0000   1.0000
     0.0000   0.0000   0.0000   0.0000

          k = 0.1000 0.5196 0.1093 (  3605 PWs)   bands (ev):

   -15.0074 -14.4241 -12.7114 -11.0832  -8.0295  -6.5529  -6.2426  -4.8589
    -4.7701  -3.4700  -2.8743  -2.1987  -2.1753  -1.6607  -0.2648   1.4402
     5.1975   7.1459   7.9705   8.7505

     occupation numbers 
     1.0000   1.0000   1.0000   1.0000   1.0000   1.0000   1.0000   1.0000
     1.0000   1.0000   1.0000   1.0000   1.0000   1.0000   1.0000   1.0000
     0.0000   0.0000   0.0000   0.0000

          k = 0.1000 0.5196 0.2187 (  3613 PWs)   bands (ev):

   -15.0057 -14.4226 -12.7102 -11.0821  -8.0289  -6.5524  -6.2420  -4.8585
    -4.7697  -3.4697  -2.9145  -2.2370  -2.1751  -1.6606  -0.2969   1.4146
     5.1790   7.1298   8.4202   9.1677

     occupation numbers 
     1.0000   1.0000   1.0000   1.0000   1.0000   1.0000   1.0000   1.0000
     1.0000   1.0000   1.0000   1.0000   1.0000   1.0000   1.0000   1.0000
     0.0000   0.0000   0.0000   0.0000

          k = 0.1000 0.5196 0.3280 (  3614 PWs)   bands (ev):

   -15.0039 -14.4209 -12.7087 -11.0809  -8.0281  -6.5518  -6.2414  -4.8580
    -4.7692  -3.4693  -2.9593  -2.2797  -2.1750  -1.6605  -0.3329   1.3858
     5.1581   7.1118   9.0938   9.6319

     occupation numbers 
     1.0000   1.0000   1.0000   1.0000   1.0000   1.0000   1.0000   1.0000
     1.0000   1.0000   1.0000   1.0000   1.0000   1.0000   1.0000   1.0000
     0.0000   0.0000   0.0000   0.0000

          k = 0.1000 0.5196 0.4373 (  3612 PWs)   bands (ev):

   -15.0027 -14.4197 -12.7078 -11.0801  -8.0276  -6.5514  -6.2410  -4.8577
    -4.7689  -3.4691  -2.9881  -2.3071  -2.1749  -1.6604  -0.3560   1.3673
     5.1446   7.1000   9.7315   9.7704

     occupation numbers 
     1.0000   1.0000   1.0000   1.0000   1.0000   1.0000   1.0000   1.0000
     1.0000   1.0000   1.0000   1.0000   1.0000   1.0000   1.0000   1.0000
     0.0000   0.0000   0.0000   0.0000

          k = 0.2000 0.3464 0.0000 (  3608 PWs)   bands (ev):

   -15.5368 -13.2181 -13.2181 -10.3326  -9.4132  -6.6724  -6.6723  -5.5775
    -3.4793  -3.3318  -3.3317  -1.9758  -1.1486  -0.8310  -0.8310   1.8266
     4.6460   7.1041   7.6969   7.6970

     occupation numbers 
     1.0000   1.0000   1.0000   1.0000   1.0000   1.0000   1.0000   1.0000
     1.0000   1.0000   1.0000   1.0000   1.0000   1.0000   1.0000   1.0000
     0.0000   0.0000   0.0000   0.0000

          k = 0.2000 0.3464 0.1093 (  3603 PWs)   bands (ev):

   -15.5361 -13.2176 -13.2176 -10.3322  -9.4128  -6.6721  -6.6721  -5.5774
    -3.4960  -3.3317  -3.3316  -1.9757  -1.1486  -0.8445  -0.8445   1.8181
     4.6351   7.2634   7.6861   7.6861

     occupation numbers 
     1.0000   1.0000   1.0000   1.0000   1.0000   1.0000   1.0000   1.0000
     1.0000   1.0000   1.0000   1.0000   1.0000   1.0000   1.0000   1.0000
     0.0000   0.0000   0.0000   0.0000

          k = 0.2000 0.3464 0.2187 (  3610 PWs)   bands (ev):

   -15.5344 -13.2163 -13.2163 -10.3313  -9.4120  -6.6715  -6.6715  -5.5769
    -3.5379  -3.3315  -3.3314  -1.9755  -1.1484  -0.8783  -0.8783   1.7966
     4.6075   7.6598   7.6599   7.7222

     occupation numbers 
     1.0000   1.0000   1.0000   1.0000   1.0000   1.0000   1.0000   1.0000
     1.0000   1.0000   1.0000   1.0000   1.0000   1.0000   1.0000   1.0000
     0.0000   0.0000   0.0000   0.0000

          k = 0.2000 0.3464 0.3280 (  3612 PWs)   bands (ev):

   -15.5324 -13.2147 -13.2147 -10.3302  -9.4110  -6.6709  -6.6708  -5.5764
    -3.5845  -3.3312  -3.3312  -1.9752  -1.1483  -0.9161  -0.9161   1.7725
     4.5767   7.6316   7.6317   8.4122

     occupation numbers 
     1.0000   1.0000   1.0000   1.0000   1.0000   1.0000   1.0000   1.0000
     1.0000   1.0000   1.0000   1.0000   1.0000   1.0000   1.0000   1.0000
     0.0000   0.0000   0.0000   0.0000

          k = 0.2000 0.3464 0.4373 (  3619 PWs)   bands (ev):

   -15.5311 -13.2137 -13.2137 -10.3295  -9.4104  -6.6705  -6.6704  -5.5761
    -3.6143  -3.3311  -3.3310  -1.9751  -1.1482  -0.9404  -0.9404   1.7569
     4.5567   7.6140   7.6141   9.1148

     occupation numbers 
     1.0000   1.0000   1.0000   1.0000   1.0000   1.0000   1.0000   1.0000
     1.0000   1.0000   1.0000   1.0000   1.0000   1.0000   1.0000   1.0000
     0.0000   0.0000   0.0000   0.0000

          k = 0.2000 0.4619 0.0000 (  3602 PWs)   bands (ev):

   -15.1253 -13.9622 -13.3896 -10.2242  -8.9240  -6.4693  -5.9858  -5.3997
    -3.8651  -2.9947  -2.9780  -2.9213  -1.8042  -1.6535  -1.0053   2.1757
     4.4304   7.6572   8.1091   9.0223

     occupation numbers 
     1.0000   1.0000   1.0000   1.0000   1.0000   1.0000   1.0000   1.0000
     1.0000   1.0000   1.0000   1.0000   1.0000   1.0000   1.0000   1.0000
     0.0000   0.0000   0.0000   0.0000

          k = 0.2000 0.4619 0.1093 (  3609 PWs)   bands (ev):

   -15.1246 -13.9616 -13.3891 -10.2238  -8.9237  -6.4691  -5.9857  -5.3996
    -3.8650  -3.0109  -2.9779  -2.9212  -1.8041  -1.6681  -1.0191   2.1670
     4.4218   7.8146   8.1017   9.0041

     occupation numbers 
     1.0000   1.0000   1.0000   1.0000   1.0000   1.0000   1.0000   1.0000
     1.0000   1.0000   1.0000   1.0000   1.0000   1.0000   1.0000   1.0000
     0.0000   0.0000   0.0000   0.0000

          k = 0.2000 0.4619 0.2187 (  3616 PWs)   bands (ev):

   -15.1230 -13.9602 -13.3877 -10.2229  -8.9229  -6.4686  -5.9852  -5.3991
    -3.8647  -3.0515  -2.9776  -2.9210  -1.8039  -1.7048  -1.0538   2.1452
     4.4002   8.0837   8.2675   8.9796

     occupation numbers 
     1.0000   1.0000   1.0000   1.0000   1.0000   1.0000   1.0000   1.0000
     1.0000   1.0000   1.0000   1.0000   1.0000   1.0000   1.0000   1.0000
     0.0000   0.0000   0.0000   0.0000

          k = 0.2000 0.4619 0.3280 (  3610 PWs)   bands (ev):

   -15.1211 -13.9585 -13.3861 -10.2218  -8.9221  -6.4680  -5.9846  -5.3986
    -3.8644  -3.0968  -2.9773  -2.9208  -1.8037  -1.7458  -1.0925   2.1206
     4.3758   8.0641   8.9480   8.9594

     occupation numbers 
     1.0000   1.0000   1.0000   1.0000   1.0000   1.0000   1.0000   1.0000
     1.0000   1.0000   1.0000   1.0000   1.0000   1.0000   1.0000   1.0000
     0.0000   0.0000   0.0000   0.0000

          k = 0.2000 0.4619 0.4373 (  3611 PWs)   bands (ev):

   -15.1199 -13.9574 -13.3851 -10.2211  -8.9215  -6.4675  -5.9842  -5.3982
    -3.8642  -3.1258  -2.9771  -2.9206  -1.8036  -1.7721  -1.1174   2.1047
     4.3601   8.0517   8.9475   9.6386

     occupation numbers 
     1.0000   1.0000   1.0000   1.0000   1.0000   1.0000   1.0000   1.0000
     1.0000   1.0000   1.0000   1.0000   1.0000   1.0000   1.0000   1.0000
     0.0000   0.0000   0.0000   0.0000

          k = 0.2000 0.5774 0.0000 (  3600 PWs)   bands (ev):

   -14.5994 -14.5994 -13.4470 -10.2340  -8.5295  -6.9563  -5.6102  -4.1983
    -4.1460  -4.1460  -2.4075  -2.4075  -2.3822  -2.3822  -1.0640   2.3065
     4.3538   8.2637   8.3669   8.3669

     occupation numbers 
     1.0000   1.0000   1.0000   1.0000   1.0000   1.0000   1.0000   1.0000
     1.0000   1.0000   1.0000   1.0000   1.0000   1.0000   1.0000   1.0000
     0.0000   0.0000   0.0000   0.0000

          k = 0.2000 0.5774 0.1093 (  3609 PWs)   bands (ev):

   -14.5988 -14.5988 -13.4464 -10.2336  -8.5293  -6.9560  -5.6101  -4.1982
    -4.1459  -4.1458  -2.4075  -2.4075  -2.3977  -2.3977  -1.0779   2.2975
     4.3464   8.2583   8.5207   8.5207

     occupation numbers 
     1.0000   1.0000   1.0000   1.0000   1.0000   1.0000   1.0000   1.0000
     1.0000   1.0000   1.0000   1.0000   1.0000   1.0000   1.0000   1.0000
     0.0000   0.0000   0.0000   0.0000

          k = 0.2000 0.5774 0.2187 (  3605 PWs)   bands (ev):

   -14.5973 -14.5973 -13.4450 -10.2327  -8.5286  -6.9554  -5.6096  -4.1978
    -4.1455  -4.1455  -2.4367  -2.4367  -2.4073  -2.4072  -1.1128   2.2749
     4.3277   8.2447   8.9619   8.9619

     occupation numbers 
     1.0000   1.0000   1.0000   1.0000   1.0000   1.0000   1.0000   1.0000
     1.0000   1.0000   1.0000   1.0000   1.0000   1.0000   1.0000   1.0000
     0.0000   0.0000   0.0000   0.0000

          k = 0.2000 0.5774 0.3280 (  3613 PWs)   bands (ev):

   -14.5955 -14.5955 -13.4435 -10.2316  -8.5277  -6.9547  -5.6091  -4.1974
    -4.1451  -4.1451  -2.4800  -2.4800  -2.4071  -2.4070  -1.1519   2.2495
     4.3065   8.2295   9.6129   9.6129

     occupation numbers 
     1.0000   1.0000   1.0000   1.0000   1.0000   1.0000   1.0000   1.0000
     1.0000   1.0000   1.0000   1.0000   1.0000   1.0000   1.0000   1.0000
     0.0000   0.0000   0.0000   0.0000

          k = 0.2000 0.5774 0.4373 (  3611 PWs)   bands (ev):

   -14.5943 -14.5943 -13.4424 -10.2309  -8.5272  -6.9543  -5.6088  -4.1971
    -4.1448  -4.1448  -2.5079  -2.5079  -2.4069  -2.4069  -1.1770   2.2331
     4.2929   8.2195  10.1372  10.1373

     occupation numbers 
     1.0000   1.0000   1.0000   1.0000   1.0000   1.0000   1.0000   1.0000
     1.0000   1.0000   1.0000   1.0000   1.0000   1.0000   1.0000   1.0000
     0.0000   0.0000   0.0000   0.0000

          k = 0.3000 0.5196 0.0000 (  3624 PWs)   bands (ev):

   -14.6578 -14.0779 -14.0779  -9.5784  -9.0616  -7.2038  -4.8376  -4.8375
    -3.8243  -3.3188  -3.3187  -2.6072  -2.4487  -1.7805  -1.7805   2.8924
     3.7720   8.2888   9.0759   9.3342

     occupation numbers 
     1.0000   1.0000   1.0000   1.0000   1.0000   1.0000   1.0000   1.0000
     1.0000   1.0000   1.0000   1.0000   1.0000   1.0000   1.0000   1.0416
     0.0121   0.0000   0.0000   0.0000

          k = 0.3000 0.5196 0.1093 (  3608 PWs)   bands (ev):

   -14.6572 -14.0773 -14.0773  -9.5781  -9.0613  -7.2036  -4.8374  -4.8373
    -3.8242  -3.3187  -3.3186  -2.6071  -2.4644  -1.7953  -1.7953   2.8843
     3.7640   8.4436   9.2211   9.2211

     occupation numbers 
     1.0000   1.0000   1.0000   1.0000   1.0000   1.0000   1.0000   1.0000
     1.0000   1.0000   1.0000   1.0000   1.0000   1.0000   1.0000   1.0390
     0.0136   0.0000   0.0000   0.0000

          k = 0.3000 0.5196 0.2187 (  3614 PWs)   bands (ev):

   -14.6556 -14.0759 -14.0759  -9.5772  -9.0605  -7.2029  -4.8370  -4.8370
    -3.8239  -3.3184  -3.3183  -2.6069  -2.5035  -1.8325  -1.8325   2.8639
     3.7441   8.8891   9.3101   9.3101

     occupation numbers 
     1.0000   1.0000   1.0000   1.0000   1.0000   1.0000   1.0000   1.0000
     1.0000   1.0000   1.0000   1.0000   1.0000   1.0000   1.0000   1.0329
     0.0181   0.0000   0.0000   0.0000

          k = 0.3000 0.5196 0.3280 (  3621 PWs)   bands (ev):

   -14.6538 -14.0742 -14.0742  -9.5763  -9.0596  -7.2022  -4.8366  -4.8365
    -3.8235  -3.3181  -3.3180  -2.6066  -2.5471  -1.8740  -1.8740   2.8410
     3.7216   9.2984   9.2984  10.4730

     occupation numbers 
     1.0000   1.0000   1.0000   1.0000   1.0000   1.0000   1.0000   1.0000
     1.0000   1.0000   1.0000   1.0000   1.0000   1.0000   1.0000   1.0266
     0.0245   0.0000   0.0000   0.0000

          k = 0.3000 0.5196 0.4373 (  3615 PWs)   bands (ev):

   -14.6526 -14.0731 -14.0731  -9.5756  -9.0590  -7.2017  -4.8363  -4.8362
    -3.8233  -3.3179  -3.3178  -2.6065  -2.5751  -1.9006  -1.9006   2.8262
     3.7071   9.2897   9.2897  10.4657

     occupation numbers 
     1.0000   1.0000   1.0000   1.0000   1.0000   1.0000   1.0000   1.0000
     1.0000   1.0000   1.0000   1.0000   1.0000   1.0000   1.0000   1.0230
     0.0297   0.0000   0.0000   0.0000

          k = 0.0000-0.1155 0.1093 (  3576 PWs)   bands (ev):

   -16.1867 -11.6228 -11.1427 -11.1427  -9.6863  -9.6862  -9.2161  -4.2703
    -3.3096  -3.3096  -3.0671   0.0527   0.1660   0.5993   0.9114   0.9114
     5.1226   5.1227   5.4641   6.3966

     occupation numbers 
     1.0000   1.0000   1.0000   1.0000   1.0000   1.0000   1.0000   1.0000
     1.0000   1.0000   1.0000   1.0000   1.0000   1.0000   1.0000   1.0000
     0.0000   0.0000   0.0000   0.0000

          k = 0.0000-0.1155 0.2187 (  3582 PWs)   bands (ev):

   -16.1848 -11.6217 -11.1416 -11.1416  -9.6854  -9.6853  -9.2153  -4.3140
    -3.3095  -3.3094  -3.0670   0.0527   0.1660   0.5739   0.8882   0.8883
     5.0809   5.0810   5.4234   6.8628

     occupation numbers 
     1.0000   1.0000   1.0000   1.0000   1.0000   1.0000   1.0000   1.0000
     1.0000   1.0000   1.0000   1.0000   1.0000   1.0000   1.0000   1.0000
     0.0000   0.0000   0.0000   0.0000

          k = 0.0000-0.1155 0.3280 (  3590 PWs)   bands (ev):

   -16.1827 -11.6204 -11.1404 -11.1404  -9.6844  -9.6843  -9.2143  -4.3626
    -3.3093  -3.3093  -3.0668   0.0528   0.1661   0.5453   0.8622   0.8622
     5.0346   5.0347   5.3783   7.5641

     occupation numbers 
     1.0000   1.0000   1.0000   1.0000   1.0000   1.0000   1.0000   1.0000
     1.0000   1.0000   1.0000   1.0000   1.0000   1.0000   1.0000   1.0000
     0.0000   0.0000   0.0000   0.0000

          k = 0.0000-0.1155 0.4373 (  3617 PWs)   bands (ev):

   -16.1813 -11.6196 -11.1396 -11.1396  -9.6837  -9.6837  -9.2137  -4.3938
    -3.3092  -3.3092  -3.0667   0.0529   0.1661   0.5268   0.8453   0.8453
     5.0050   5.0051   5.3495   8.2777

     occupation numbers 
     1.0000   1.0000   1.0000   1.0000   1.0000   1.0000   1.0000   1.0000
     1.0000   1.0000   1.0000   1.0000   1.0000   1.0000   1.0000   1.0000
     0.0000   0.0000   0.0000   0.0000

          k = 0.0000-0.2309 0.1093 (  3592 PWs)   bands (ev):

   -16.0088 -12.5412 -11.4634 -11.4634  -9.0754  -9.0754  -8.0358  -4.0578
    -3.8116  -3.8116  -2.8910  -0.6249  -0.1855  -0.1763   0.8074   0.8075
     5.4015   5.4016   6.5135   6.6329

     occupation numbers 
     1.0000   1.0000   1.0000   1.0000   1.0000   1.0000   1.0000   1.0000
     1.0000   1.0000   1.0000   1.0000   1.0000   1.0000   1.0000   1.0000
     0.0000   0.0000   0.0000   0.0000

          k = 0.0000-0.2309 0.2187 (  3601 PWs)   bands (ev):

   -16.0070 -12.5400 -11.4623 -11.4623  -9.0746  -9.0746  -8.0351  -4.1010
    -3.8114  -3.8113  -2.8909  -0.6248  -0.2066  -0.1854   0.7822   0.7823
     5.3658   5.3659   6.4777   7.0972

     occupation numbers 
     1.0000   1.0000   1.0000   1.0000   1.0000   1.0000   1.0000   1.0000
     1.0000   1.0000   1.0000   1.0000   1.0000   1.0000   1.0000   1.0000
     0.0000   0.0000   0.0000   0.0000

          k = 0.0000-0.2309 0.3280 (  3605 PWs)   bands (ev):

   -16.0049 -12.5385 -11.4610 -11.4610  -9.0737  -9.0736  -8.0343  -4.1491
    -3.8111  -3.8111  -2.8907  -0.6246  -0.2407  -0.1853   0.7539   0.7539
     5.3261   5.3262   6.4384   7.7958

     occupation numbers 
     1.0000   1.0000   1.0000   1.0000   1.0000   1.0000   1.0000   1.0000
     1.0000   1.0000   1.0000   1.0000   1.0000   1.0000   1.0000   1.0000
     0.0000   0.0000   0.0000   0.0000

          k = 0.0000-0.2309 0.4373 (  3609 PWs)   bands (ev):

   -16.0035 -12.5376 -11.4602 -11.4602  -9.0731  -9.0730  -8.0338  -4.1799
    -3.8110  -3.8109  -2.8906  -0.6245  -0.2627  -0.1853   0.7356   0.7356
     5.3007   5.3007   6.4135   8.5071

     occupation numbers 
     1.0000   1.0000   1.0000   1.0000   1.0000   1.0000   1.0000   1.0000
     1.0000   1.0000   1.0000   1.0000   1.0000   1.0000   1.0000   1.0000
     0.0000   0.0000   0.0000   0.0000

          k = 0.0000-0.3464 0.1093 (  3596 PWs)   bands (ev):

   -15.7130 -13.3873 -11.7217 -11.7217  -8.3544  -8.3543  -6.7634  -4.5181
    -4.5181  -3.7059  -2.6036  -1.6208  -1.0440  -0.6743   0.6905   0.6905
     5.7526   5.7527   7.0267   7.8179

     occupation numbers 
     1.0000   1.0000   1.0000   1.0000   1.0000   1.0000   1.0000   1.0000
     1.0000   1.0000   1.0000   1.0000   1.0000   1.0000   1.0000   1.0000
     0.0000   0.0000   0.0000   0.0000

          k = 0.0000-0.3464 0.2187 (  3604 PWs)   bands (ev):

   -15.7113 -13.3860 -11.7205 -11.7205  -8.3537  -8.3536  -6.7629  -4.5178
    -4.5178  -3.7483  -2.6035  -1.6206  -1.0783  -0.6742   0.6633   0.6633
     5.7251   5.7251   7.4875   7.7842

     occupation numbers 
     1.0000   1.0000   1.0000   1.0000   1.0000   1.0000   1.0000   1.0000
     1.0000   1.0000   1.0000   1.0000   1.0000   1.0000   1.0000   1.0000
     0.0000   0.0000   0.0000   0.0000

          k = 0.0000-0.3464 0.3280 (  3607 PWs)   bands (ev):

   -15.7093 -13.3844 -11.7192 -11.7192  -8.3528  -8.3528  -6.7622  -4.5174
    -4.5174  -3.7954  -2.6033  -1.6204  -1.1166  -0.6741   0.6327   0.6327
     5.6944   5.6944   7.7493   8.1808

     occupation numbers 
     1.0000   1.0000   1.0000   1.0000   1.0000   1.0000   1.0000   1.0000
     1.0000   1.0000   1.0000   1.0000   1.0000   1.0000   1.0000   1.0000
     0.0000   0.0000   0.0000   0.0000

          k = 0.0000-0.3464 0.4373 (  3603 PWs)   bands (ev):

   -15.7079 -13.3834 -11.7184 -11.7184  -8.3523  -8.3522  -6.7617  -4.5172
    -4.5171  -3.8257  -2.6032  -1.6203  -1.1413  -0.6741   0.6129   0.6129
     5.6746   5.6746   7.7279   8.8870

     occupation numbers 
     1.0000   1.0000   1.0000   1.0000   1.0000   1.0000   1.0000   1.0000
     1.0000   1.0000   1.0000   1.0000   1.0000   1.0000   1.0000   1.0000
     0.0000   0.0000   0.0000   0.0000

          k = 0.0000-0.4619 0.1093 (  3615 PWs)   bands (ev):

   -15.3006 -14.1342 -11.8827 -11.8827  -7.6213  -7.6213  -5.4432  -5.2749
    -5.2749  -3.2185  -2.8145  -2.2152  -1.8699  -1.2151   0.6035   0.6035
     6.0469   6.0469   7.5773   9.0821

     occupation numbers 
     1.0000   1.0000   1.0000   1.0000   1.0000   1.0000   1.0000   1.0000
     1.0000   1.0000   1.0000   1.0000   1.0000   1.0000   1.0000   1.0000
     0.0000   0.0000   0.0000   0.0000

          k = 0.0000-0.4619 0.2187 (  3607 PWs)   bands (ev):

   -15.2989 -14.1327 -11.8815 -11.8815  -7.6207  -7.6206  -5.4427  -5.2745
    -5.2745  -3.2597  -2.8142  -2.2151  -1.9071  -1.2150   0.5748   0.5749
     6.0271   6.0271   8.0322   9.1308

     occupation numbers 
     1.0000   1.0000   1.0000   1.0000   1.0000   1.0000   1.0000   1.0000
     1.0000   1.0000   1.0000   1.0000   1.0000   1.0000   1.0000   1.0000
     0.0000   0.0000   0.0000   0.0000

          k = 0.0000-0.4619 0.3280 (  3607 PWs)   bands (ev):

   -15.2970 -14.1311 -11.8802 -11.8802  -7.6199  -7.6199  -5.4421  -5.2740
    -5.2740  -3.3055  -2.8139  -2.2150  -1.9487  -1.2149   0.5427   0.5427
     6.0048   6.0049   8.7156   9.1235

     occupation numbers 
     1.0000   1.0000   1.0000   1.0000   1.0000   1.0000   1.0000   1.0000
     1.0000   1.0000   1.0000   1.0000   1.0000   1.0000   1.0000   1.0000
     0.0000   0.0000   0.0000   0.0000

          k = 0.0000-0.4619 0.4373 (  3596 PWs)   bands (ev):

   -15.2958 -14.1300 -11.8793 -11.8793  -7.6195  -7.6194  -5.4417  -5.2737
    -5.2737  -3.3349  -2.8137  -2.2149  -1.9754  -1.2148   0.5220   0.5220
     5.9904   5.9905   9.1144   9.4094

     occupation numbers 
     1.0000   1.0000   1.0000   1.0000   1.0000   1.0000   1.0000   1.0000
     1.0000   1.0000   1.0000   1.0000   1.0000   1.0000   1.0000   1.0000
     0.0000   0.0000   0.0000   0.0000

          k =-0.1000-0.2887 0.1093 (  3594 PWs)   bands (ev):

   -15.8312 -12.9338 -12.3756 -10.8332  -9.3967  -7.9146  -7.3799  -4.6465
    -3.8463  -3.6303  -2.9566  -1.1866  -0.5599  -0.5532   0.0240   1.3377
     4.9662   6.4297   6.8693   7.1232

     occupation numbers 
     1.0000   1.0000   1.0000   1.0000   1.0000   1.0000   1.0000   1.0000
     1.0000   1.0000   1.0000   1.0000   1.0000   1.0000   1.0000   1.0000
     0.0000   0.0000   0.0000   0.0000

          k =-0.1000-0.2887 0.2187 (  3601 PWs)   bands (ev):

   -15.8294 -12.9325 -12.3744 -10.8322  -9.3959  -7.9139  -7.3793  -4.6461
    -3.8890  -3.6301  -2.9564  -1.1864  -0.5923  -0.5531  -0.0060   1.3149
     4.9337   6.3994   7.0907   7.3316

     occupation numbers 
     1.0000   1.0000   1.0000   1.0000   1.0000   1.0000   1.0000   1.0000
     1.0000   1.0000   1.0000   1.0000   1.0000   1.0000   1.0000   1.0000
     0.0000   0.0000   0.0000   0.0000

          k =-0.1000-0.2887 0.3280 (  3609 PWs)   bands (ev):

   -15.8274 -12.9310 -12.3730 -10.8310  -9.3949  -7.9131  -7.3785  -4.6457
    -3.9365  -3.6298  -2.9563  -1.1862  -0.6285  -0.5531  -0.0396   1.2894
     4.8972   6.3658   7.0554   8.0272

     occupation numbers 
     1.0000   1.0000   1.0000   1.0000   1.0000   1.0000   1.0000   1.0000
     1.0000   1.0000   1.0000   1.0000   1.0000   1.0000   1.0000   1.0000
     0.0000   0.0000   0.0000   0.0000

          k =-0.1000-0.2887 0.4373 (  3606 PWs)   bands (ev):

   -15.8261 -12.9301 -12.3721 -10.8303  -9.3943  -7.9126  -7.3780  -4.6455
    -3.9670  -3.6297  -2.9562  -1.1861  -0.6519  -0.5530  -0.0613   1.2728
     4.8738   6.3444   7.0333   8.7357

     occupation numbers 
     1.0000   1.0000   1.0000   1.0000   1.0000   1.0000   1.0000   1.0000
     1.0000   1.0000   1.0000   1.0000   1.0000   1.0000   1.0000   1.0000
     0.0000   0.0000   0.0000   0.0000

          k =-0.1000-0.4041 0.1093 (  3608 PWs)   bands (ev):

   -15.4771 -13.7310 -12.5989 -10.9897  -8.6916  -7.1821  -6.0879  -5.5038
    -4.2596  -3.4265  -2.6140  -2.2477  -1.4161  -1.1027  -0.1660   1.4157
     5.0880   6.8760   7.3418   8.4709

     occupation numbers 
     1.0000   1.0000   1.0000   1.0000   1.0000   1.0000   1.0000   1.0000
     1.0000   1.0000   1.0000   1.0000   1.0000   1.0000   1.0000   1.0000
     0.0000   0.0000   0.0000   0.0000

          k =-0.1000-0.4041 0.2187 (  3613 PWs)   bands (ev):

   -15.4754 -13.7296 -12.5976 -10.9887  -8.6908  -7.1814  -6.0874  -5.5033
    -4.2593  -3.4681  -2.6138  -2.2474  -1.4518  -1.1026  -0.1975   1.3913
     5.0636   6.8536   7.7996   8.4384

     occupation numbers 
     1.0000   1.0000   1.0000   1.0000   1.0000   1.0000   1.0000   1.0000
     1.0000   1.0000   1.0000   1.0000   1.0000   1.0000   1.0000   1.0000
     0.0000   0.0000   0.0000   0.0000

          k =-0.1000-0.4041 0.3280 (  3615 PWs)   bands (ev):

   -15.4735 -13.7280 -12.5962 -10.9875  -8.6899  -7.1807  -6.0868  -5.5028
    -4.2590  -3.5146  -2.6137  -2.2472  -1.4917  -1.1025  -0.2326   1.3639
     5.0362   6.8288   8.4076   8.4881

     occupation numbers 
     1.0000   1.0000   1.0000   1.0000   1.0000   1.0000   1.0000   1.0000
     1.0000   1.0000   1.0000   1.0000   1.0000   1.0000   1.0000   1.0000
     0.0000   0.0000   0.0000   0.0000

          k =-0.1000-0.4041 0.4373 (  3606 PWs)   bands (ev):

   -15.4722 -13.7269 -12.5953 -10.9867  -8.6894  -7.1803  -6.0864  -5.5025
    -4.2587  -3.5443  -2.6136  -2.2470  -1.5174  -1.1024  -0.2553   1.3462
     5.0185   6.8128   8.3896   9.1887

     occupation numbers 
     1.0000   1.0000   1.0000   1.0000   1.0000   1.0000   1.0000   1.0000
     1.0000   1.0000   1.0000   1.0000   1.0000   1.0000   1.0000   1.0000
     0.0000   0.0000   0.0000   0.0000

          k =-0.1000-0.5196 0.1093 (  3605 PWs)   bands (ev):

   -15.0074 -14.4241 -12.7114 -11.0832  -8.0295  -6.5529  -6.2426  -4.8589
    -4.7701  -3.4700  -2.8743  -2.1987  -2.1753  -1.6607  -0.2648   1.4402
     5.1975   7.1459   7.9705   8.7505

     occupation numbers 
     1.0000   1.0000   1.0000   1.0000   1.0000   1.0000   1.0000   1.0000
     1.0000   1.0000   1.0000   1.0000   1.0000   1.0000   1.0000   1.0000
     0.0000   0.0000   0.0000   0.0000

          k =-0.1000-0.5196 0.2187 (  3613 PWs)   bands (ev):

   -15.0057 -14.4226 -12.7102 -11.0821  -8.0289  -6.5524  -6.2420  -4.8585
    -4.7697  -3.4697  -2.9145  -2.2370  -2.1751  -1.6606  -0.2969   1.4146
     5.1790   7.1298   8.4202   9.1681

     occupation numbers 
     1.0000   1.0000   1.0000   1.0000   1.0000   1.0000   1.0000   1.0000
     1.0000   1.0000   1.0000   1.0000   1.0000   1.0000   1.0000   1.0000
     0.0000   0.0000   0.0000   0.0000

          k =-0.1000-0.5196 0.3280 (  3614 PWs)   bands (ev):

   -15.0039 -14.4209 -12.7087 -11.0809  -8.0281  -6.5518  -6.2414  -4.8580
    -4.7692  -3.4693  -2.9593  -2.2797  -2.1750  -1.6605  -0.3329   1.3858
     5.1581   7.1118   9.0939   9.6319

     occupation numbers 
     1.0000   1.0000   1.0000   1.0000   1.0000   1.0000   1.0000   1.0000
     1.0000   1.0000   1.0000   1.0000   1.0000   1.0000   1.0000   1.0000
     0.0000   0.0000   0.0000   0.0000

          k =-0.1000-0.5196 0.4373 (  3612 PWs)   bands (ev):

   -15.0027 -14.4197 -12.7078 -11.0801  -8.0276  -6.5514  -6.2410  -4.8577
    -4.7689  -3.4691  -2.9881  -2.3071  -2.1749  -1.6604  -0.3560   1.3673
     5.1446   7.1000   9.7315   9.7704

     occupation numbers 
     1.0000   1.0000   1.0000   1.0000   1.0000   1.0000   1.0000   1.0000
     1.0000   1.0000   1.0000   1.0000   1.0000   1.0000   1.0000   1.0000
     0.0000   0.0000   0.0000   0.0000

          k =-0.2000-0.4619 0.1093 (  3609 PWs)   bands (ev):

   -15.1246 -13.9616 -13.3891 -10.2238  -8.9237  -6.4691  -5.9857  -5.3996
    -3.8650  -3.0109  -2.9779  -2.9212  -1.8041  -1.6681  -1.0191   2.1670
     4.4218   7.8146   8.1017   9.0037

     occupation numbers 
     1.0000   1.0000   1.0000   1.0000   1.0000   1.0000   1.0000   1.0000
     1.0000   1.0000   1.0000   1.0000   1.0000   1.0000   1.0000   1.0000
     0.0000   0.0000   0.0000   0.0000

          k =-0.2000-0.4619 0.2187 (  3616 PWs)   bands (ev):

   -15.1230 -13.9602 -13.3877 -10.2229  -8.9229  -6.4686  -5.9852  -5.3991
    -3.8647  -3.0515  -2.9776  -2.9210  -1.8039  -1.7048  -1.0538   2.1452
     4.4002   8.0837   8.2675   8.9796

     occupation numbers 
     1.0000   1.0000   1.0000   1.0000   1.0000   1.0000   1.0000   1.0000
     1.0000   1.0000   1.0000   1.0000   1.0000   1.0000   1.0000   1.0000
     0.0000   0.0000   0.0000   0.0000

          k =-0.2000-0.4619 0.3280 (  3610 PWs)   bands (ev):

   -15.1211 -13.9585 -13.3861 -10.2218  -8.9221  -6.4680  -5.9846  -5.3986
    -3.8644  -3.0968  -2.9773  -2.9208  -1.8037  -1.7458  -1.0925   2.1206
     4.3758   8.0641   8.9480   8.9594

     occupation numbers 
     1.0000   1.0000   1.0000   1.0000   1.0000   1.0000   1.0000   1.0000
     1.0000   1.0000   1.0000   1.0000   1.0000   1.0000   1.0000   1.0000
     0.0000   0.0000   0.0000   0.0000

          k =-0.2000-0.4619 0.4373 (  3611 PWs)   bands (ev):

   -15.1199 -13.9574 -13.3851 -10.2211  -8.9215  -6.4675  -5.9842  -5.3982
    -3.8642  -3.1258  -2.9771  -2.9206  -1.8036  -1.7721  -1.1174   2.1047
     4.3601   8.0517   8.9475   9.6385

     occupation numbers 
     1.0000   1.0000   1.0000   1.0000   1.0000   1.0000   1.0000   1.0000
     1.0000   1.0000   1.0000   1.0000   1.0000   1.0000   1.0000   1.0000
     0.0000   0.0000   0.0000   0.0000

     the Fermi energy is     3.4355 ev

     WARNING: integrated charge=    32.00624822, expected=    32.00000000

!    total energy              =    -144.92681766 Ry
     total all-electron energy =      -607.159040 Ry
     estimated scf accuracy    <          9.5E-10 Ry
     smearing contrib. (-TS)   =       0.00011935 Ry
     internal energy E=F+TS    =    -144.92693701 Ry

     The total energy is F=E-TS. E is the sum of the following terms:
     one-electron contribution =    -100.68241422 Ry
     hartree contribution      =      62.69022983 Ry
     xc contribution           =     -36.67772352 Ry
     ewald contribution        =     -23.13427330 Ry
     one-center paw contrib.   =     -47.12275580 Ry
      -> PAW hartree energy AE =      76.45384947 Ry
      -> PAW hartree energy PS =     -76.38460696 Ry
      -> PAW xc energy AE      =     -83.03253140 Ry
      -> PAW xc energy PS      =      35.84053308 Ry
      -> total E_H with PAW    =      62.75947235 Ry
      -> total E_XC with PAW   =     -83.86972184 Ry

     convergence has been achieved in   9 iterations

     Forces acting on atoms (cartesian axes, Ry/au):

     atom    1 type  1   force =     0.00000000    0.00000000   -0.00000001
     atom    2 type  1   force =     0.00000008    0.00000005    0.00000001
     atom    3 type  1   force =    -0.00000000   -0.00000009    0.00000001
     atom    4 type  1   force =    -0.00000008    0.00000005    0.00000001
     atom    5 type  1   force =     0.00000000   -0.00000037   -0.00000001
     atom    6 type  1   force =    -0.00000032    0.00000018   -0.00000001
     atom    7 type  1   force =     0.00000000    0.00000000    0.00000001
     atom    8 type  1   force =     0.00000032    0.00000018   -0.00000001
     The non-local contrib.  to forces
     atom    1 type  1   force =     0.00000000    0.00000000    0.00000008
     atom    2 type  1   force =     0.00000033    0.00000019    0.00000007
     atom    3 type  1   force =     0.00000000   -0.00000038    0.00000007
     atom    4 type  1   force =    -0.00000033    0.00000019    0.00000007
     atom    5 type  1   force =     0.00000000   -0.00000075   -0.00000004
     atom    6 type  1   force =    -0.00000065    0.00000038   -0.00000004
     atom    7 type  1   force =     0.00000000   -0.00000000   -0.00000006
     atom    8 type  1   force =     0.00000065    0.00000038   -0.00000004
     The ionic contribution  to forces
     atom    1 type  1   force =    -0.00001714   -0.00000990    0.00000000
     atom    2 type  1   force =    -0.00001714   -0.00000990   -0.00000000
     atom    3 type  1   force =    -0.00001714   -0.00000990   -0.00000000
     atom    4 type  1   force =    -0.00001714   -0.00000990   -0.00000000
     atom    5 type  1   force =     0.00001714    0.00000990    0.00000000
     atom    6 type  1   force =     0.00001714    0.00000990    0.00000000
     atom    7 type  1   force =     0.00001714    0.00000990   -0.00000000
     atom    8 type  1   force =     0.00001714    0.00000990    0.00000000
     The local contribution  to forces
     atom    1 type  1   force =     0.00000000    0.00000000   -0.00000009
     atom    2 type  1   force =    -0.00000046   -0.00000026   -0.00000012
     atom    3 type  1   force =     0.00000000    0.00000053   -0.00000012
     atom    4 type  1   force =     0.00000046   -0.00000026   -0.00000012
     atom    5 type  1   force =     0.00001160    0.00000691   -0.00000000
     atom    6 type  1   force =     0.00001179    0.00000659   -0.00000000
     atom    7 type  1   force =     0.00001160    0.00000670   -0.00000003
     atom    8 type  1   force =     0.00001141    0.00000659   -0.00000000
     The core correction contribution to forces
     atom    1 type  1   force =    -0.00000000   -0.00000000   -0.00000000
     atom    2 type  1   force =    -0.00000001   -0.00000001   -0.00000000
     atom    3 type  1   force =    -0.00000000    0.00000001   -0.00000000
     atom    4 type  1   force =     0.00000001   -0.00000001   -0.00000000
     atom    5 type  1   force =    -0.00000112   -0.00000062   -0.00000000
     atom    6 type  1   force =    -0.00000109   -0.00000066   -0.00000000
     atom    7 type  1   force =    -0.00000112   -0.00000064    0.00000000
     atom    8 type  1   force =    -0.00000114   -0.00000066   -0.00000000
     The Hubbard contrib.    to forces
     atom    1 type  1   force =     0.00000000    0.00000000    0.00000000
     atom    2 type  1   force =     0.00000000    0.00000000    0.00000000
     atom    3 type  1   force =     0.00000000    0.00000000    0.00000000
     atom    4 type  1   force =     0.00000000    0.00000000    0.00000000
     atom    5 type  1   force =     0.00000000    0.00000000    0.00000000
     atom    6 type  1   force =     0.00000000    0.00000000    0.00000000
     atom    7 type  1   force =     0.00000000    0.00000000    0.00000000
     atom    8 type  1   force =     0.00000000    0.00000000    0.00000000
     The SCF correction term to forces
     atom    1 type  1   force =    -0.00000000   -0.00000000   -0.00000003
     atom    2 type  1   force =     0.00000022    0.00000013    0.00000004
     atom    3 type  1   force =    -0.00000000   -0.00000025    0.00000004
     atom    4 type  1   force =    -0.00000022    0.00000013    0.00000004
     atom    5 type  1   force =     0.00000000    0.00000015    0.00000002
     atom    6 type  1   force =     0.00000013   -0.00000007    0.00000002
     atom    7 type  1   force =     0.00000000    0.00000000    0.00000008
     atom    8 type  1   force =    -0.00000013   -0.00000007    0.00000002

     Total force =     0.000001     Total SCF correction =     0.000001
     SCF correction compared to forces is large: reduce conv_thr to get better values


     Computing stress (Cartesian axis) and pressure

          total   stress  (Ry/bohr**3)                   (kbar)     P=       -1.22
  -0.00001033   0.00000000   0.00000000           -1.52        0.00        0.00
   0.00000000  -0.00001033   0.00000000            0.00       -1.52        0.00
   0.00000000   0.00000000  -0.00000420            0.00        0.00       -0.62

     kinetic stress (kbar)   7794.40      0.00      0.00
                                0.00   7794.40      0.00
                                0.00     -0.00   8826.11

     local   stress (kbar) -31887.93      0.02     -0.00
                                0.02 -31887.95     -0.00
                               -0.00     -0.00  31130.15

     nonloc. stress (kbar)   2102.99      0.00      0.00
                                0.00   2102.99     -0.00
                                0.00      0.00   1915.64

     hartree stress (kbar)  12359.64     -0.00      0.00
                               -0.00  12359.64     -0.00
                                0.00     -0.00 -11681.61

     exc-cor stress (kbar)   -174.36     -0.00     -0.00
                               -0.00   -174.36     -0.00
                               -0.00     -0.00   -211.86

     corecor stress (kbar)  -1864.26      0.00      0.00
                                0.00  -1864.26      0.00
                                0.00      0.00  -1831.79

     ewald   stress (kbar)  11667.99     -0.03      0.00
                               -0.03  11668.03     -0.00
                                0.00     -0.00 -28147.25

     hubbard stress (kbar)      0.00      0.00      0.00
                                0.00      0.00      0.00
                                0.00      0.00      0.00

     DFT-D   stress (kbar)      0.00      0.00      0.00
                                0.00      0.00      0.00
                                0.00      0.00      0.00

     XDM     stress (kbar)      0.00      0.00      0.00
                                0.00      0.00      0.00
                                0.00      0.00      0.00

     dft-nl  stress (kbar)      0.00      0.00      0.00
                                0.00      0.00      0.00
                                0.00      0.00      0.00

     TS-vdW  stress (kbar)      0.00      0.00      0.00
                                0.00      0.00      0.00
                                0.00      0.00      0.00

     MDB     stress (kbar)      0.00      0.00      0.00
                                0.00      0.00      0.00
                                0.00      0.00      0.00

     3D-RISM stress (kbar)      0.00      0.00      0.00
                                0.00      0.00      0.00
                                0.00      0.00      0.00


     BFGS Geometry Optimization
     Energy error            =      0.0E+00 Ry
     Gradient error          =      3.7E-07 Ry/Bohr

     bfgs converged in   1 scf cycles and   0 bfgs steps
     (criteria: energy <  8.0E-05 Ry, force <  1.0E-04 Ry/Bohr)

     End of BFGS Geometry Optimization

     Final energy             =    -144.9268176615 Ry
Begin final coordinates

ATOMIC_POSITIONS (crystal)
C                0.0000000000        0.0000000000        0.2500000000
C                0.0000000000        0.5000000000        0.2500000000
C                0.5000000000        0.0000000000        0.2500000000
C                0.5000000000        0.5000000000        0.2500000000
C                0.1666660000        0.3333330000        0.2500000000
C                0.1666660000        0.8333330000        0.2500000000
C                0.6666660000        0.3333330000        0.2500000000
C                0.6666660000        0.8333330000        0.2500000000
End final coordinates



     Writing all to output data dir ./out/aiida.save/ :
     XML data file, charge density, pseudopotentials, collected wavefunctions

     init_run     :     23.82s CPU      9.09s WALL (       1 calls)
     electrons    :    389.30s CPU    140.27s WALL (       1 calls)
     forces       :      1.66s CPU      0.66s WALL (       1 calls)
     stress       :     26.05s CPU     14.76s WALL (       1 calls)

     Called by init_run:
     wfcinit      :     22.93s CPU      8.18s WALL (       1 calls)
     wfcinit:atom :      0.30s CPU      0.11s WALL (     102 calls)
     wfcinit:wfcr :     19.98s CPU      7.06s WALL (     102 calls)
     potinit      :      0.41s CPU      0.43s WALL (       1 calls)
     hinit0       :      0.39s CPU      0.40s WALL (       1 calls)

     Called by electrons:
     c_bands      :    354.60s CPU    122.52s WALL (       9 calls)
     sum_band     :     31.34s CPU     15.04s WALL (       9 calls)
     v_of_rho     :      1.39s CPU      0.86s WALL (      10 calls)
     v_h          :      0.03s CPU      0.03s WALL (      10 calls)
     v_xc         :      1.53s CPU      0.97s WALL (      12 calls)
     newd         :      0.40s CPU      0.44s WALL (      10 calls)
     PAW_pot      :      1.51s CPU      1.51s WALL (      10 calls)
     mix_rho      :      0.23s CPU      0.09s WALL (       9 calls)

     Called by c_bands:
     init_us_2    :      8.58s CPU      2.99s WALL (    2142 calls)
     cegterg      :    334.24s CPU    115.23s WALL (     918 calls)

     Called by sum_band:
     sum_band:wei :      0.10s CPU      0.04s WALL (       9 calls)
     sum_band:loo :     29.06s CPU     14.28s WALL (       9 calls)
     sum_band:buf :      0.36s CPU      0.10s WALL (     918 calls)
     sum_band:ini :      2.71s CPU      1.04s WALL (     918 calls)
     sum_band:cal :      0.96s CPU      0.27s WALL (     918 calls)
     sum_band:bec :      0.03s CPU      0.01s WALL (     918 calls)
     addusdens    :      1.91s CPU      0.63s WALL (       9 calls)
                                        0.00s GPU  (       9 calls)
     addusd:skk   :      0.06s CPU      0.04s WALL (       9 calls)
                                        0.00s GPU  (       9 calls)

     Called by *egterg:
     cdiaghg      :      8.62s CPU      2.68s WALL (    3843 calls)
     cegterg:over :     11.71s CPU      1.51s WALL (    2925 calls)
     cegterg:upda :      5.01s CPU      1.11s WALL (    2925 calls)
     cegterg:last :      8.62s CPU      1.21s WALL (    1930 calls)
     h_psi        :    301.41s CPU    112.42s WALL (    3945 calls)
     s_psi        :      6.17s CPU      0.96s WALL (    3945 calls)
     g_psi        :      3.05s CPU      0.70s WALL (    2925 calls)

     Called by h_psi:
     h_psi:calbec :      9.68s CPU      1.96s WALL (    3945 calls)
     vloc_psi     :    283.20s CPU    108.69s WALL (    3945 calls)
     add_vuspsi   :      7.11s CPU      1.30s WALL (    3945 calls)

     General routines
     calbec       :     11.01s CPU      2.34s WALL (    5373 calls)
     fft          :      0.89s CPU      0.62s WALL (     153 calls)
     ffts         :      0.23s CPU      0.21s WALL (      19 calls)
     fftw         :    244.31s CPU     98.67s WALL (  125302 calls)
     interpolate  :      0.22s CPU      0.22s WALL (      10 calls)

     Parallel routines

     PAW routines
     PAW_pot      :      1.51s CPU      1.51s WALL (      10 calls)
     PAW_symme    :      0.00s CPU      0.00s WALL (      19 calls)

     PWSCF        :   7m21.12s CPU   2m45.02s WALL


   This run was terminated on:  17: 0:36   5Dec2024            

=------------------------------------------------------------------------------=
   JOB DONE.
=------------------------------------------------------------------------------=
